
Linearized model: Predictions were generated on 12-Jan-2024 at 08:43:17 using OpenFAST, compiled as a 64-bit application using single precision at commit v3.5.1
 linked with  NWTC Subroutine Library; ElastoDyn; InflowWind; AeroDyn; ServoDyn; HydroDyn; MAP++ (<1.20.10>, <Oct-20-2023>)

Description from the FAST input file: CCT-9 Campign 4 model. Input files to be run with OpenFAST 3.5.0. GitHub branch from Lu Wang (https://github.com/luwang00/openfast/tree/dev) compiled on March 7, 2023.

Simulation information:
   Simulation time:                   508.4000 s
   Rotor Speed:                         0.7078 rad/s
   Azimuth:                             3.0771 rad
   Wind Speed:                          8.0000 m/s
   Number of continuous states:         0
   Number of discrete states:           0
   Number of constraint states:         0
   Number of inputs:                 1746
   Number of outputs:                   4
   Jacobians included in this file?    No

Order of inputs:
     Column   Operating Point                     Rotating Frame? Derivative Order Description
   ---------- ---------------                     --------------- ---------------- -----------
          1    7.307E+00                                 F               0         Tower X translation displacement, node 1, m
          2   -1.293E+00                                 F               0         Tower Y translation displacement, node 1, m
          3   -1.865E-01                                 F               0         Tower Z translation displacement, node 1, m
          4    8.367E+00                                 F               0         Tower X translation displacement, node 2, m
          5   -1.851E+00                                 F               0         Tower Y translation displacement, node 2, m
          6   -2.448E-01                                 F               0         Tower Z translation displacement, node 2, m
          7    9.443E+00                                 F               0         Tower X translation displacement, node 3, m
          8   -2.415E+00                                 F               0         Tower Y translation displacement, node 3, m
          9   -3.047E-01                                 F               0         Tower Z translation displacement, node 3, m
         10    1.053E+01                                 F               0         Tower X translation displacement, node 4, m
         11   -2.983E+00                                 F               0         Tower Y translation displacement, node 4, m
         12   -3.658E-01                                 F               0         Tower Z translation displacement, node 4, m
         13    1.163E+01                                 F               0         Tower X translation displacement, node 5, m
         14   -3.554E+00                                 F               0         Tower Y translation displacement, node 5, m
         15   -4.279E-01                                 F               0         Tower Z translation displacement, node 5, m
         16    1.273E+01                                 F               0         Tower X translation displacement, node 6, m
         17   -4.129E+00                                 F               0         Tower Y translation displacement, node 6, m
         18   -4.909E-01                                 F               0         Tower Z translation displacement, node 6, m
         19    1.384E+01                                 F               0         Tower X translation displacement, node 7, m
         20   -4.706E+00                                 F               0         Tower Y translation displacement, node 7, m
         21   -5.544E-01                                 F               0         Tower Z translation displacement, node 7, m
         22    1.496E+01                                 F               0         Tower X translation displacement, node 8, m
         23   -5.285E+00                                 F               0         Tower Y translation displacement, node 8, m
         24   -6.184E-01                                 F               0         Tower Z translation displacement, node 8, m
         25    1.608E+01                                 F               0         Tower X translation displacement, node 9, m
         26   -5.866E+00                                 F               0         Tower Y translation displacement, node 9, m
         27   -6.827E-01                                 F               0         Tower Z translation displacement, node 9, m
         28    1.719E+01                                 F               0         Tower X translation displacement, node 10, m
         29   -6.448E+00                                 F               0         Tower Y translation displacement, node 10, m
         30   -7.472E-01                                 F               0         Tower Z translation displacement, node 10, m
         31    1.831E+01                                 F               0         Tower X translation displacement, node 11, m
         32   -7.030E+00                                 F               0         Tower Y translation displacement, node 11, m
         33   -8.118E-01                                 F               0         Tower Z translation displacement, node 11, m
         34    9.964E-01,  4.857E-03, -8.517E-02         F               0         Tower X orientation angle, node 1, rad
         35   -9.986E-04,  9.990E-01,  4.528E-02         F               0         Tower Y orientation angle, node 1, rad
         36    8.530E-02, -4.503E-02,  9.953E-01         F               0         Tower Z orientation angle, node 1, rad
         37    9.962E-01,  4.912E-03, -8.639E-02         F               0         Tower X orientation angle, node 2, rad
         38   -9.634E-04,  9.990E-01,  4.569E-02         F               0         Tower Y orientation angle, node 2, rad
         39    8.652E-02, -4.544E-02,  9.952E-01         F               0         Tower Z orientation angle, node 2, rad
         40    9.962E-01,  4.960E-03, -8.744E-02         F               0         Tower X orientation angle, node 3, rad
         41   -9.314E-04,  9.989E-01,  4.606E-02         F               0         Tower Y orientation angle, node 3, rad
         42    8.758E-02, -4.580E-02,  9.951E-01         F               0         Tower Z orientation angle, node 3, rad
         43    9.961E-01,  5.000E-03, -8.831E-02         F               0         Tower X orientation angle, node 4, rad
         44   -9.032E-04,  9.989E-01,  4.638E-02         F               0         Tower Y orientation angle, node 4, rad
         45    8.844E-02, -4.611E-02,  9.950E-01         F               0         Tower Z orientation angle, node 4, rad
         46    9.960E-01,  5.032E-03, -8.900E-02         F               0         Tower X orientation angle, node 5, rad
         47   -8.787E-04,  9.989E-01,  4.665E-02         F               0         Tower Y orientation angle, node 5, rad
         48    8.913E-02, -4.639E-02,  9.949E-01         F               0         Tower Z orientation angle, node 5, rad
         49    9.960E-01,  5.057E-03, -8.953E-02         F               0         Tower X orientation angle, node 6, rad
         50   -8.582E-04,  9.989E-01,  4.688E-02         F               0         Tower Y orientation angle, node 6, rad
         51    8.966E-02, -4.661E-02,  9.949E-01         F               0         Tower Z orientation angle, node 6, rad
         52    9.959E-01,  5.075E-03, -8.990E-02         F               0         Tower X orientation angle, node 7, rad
         53   -8.417E-04,  9.989E-01,  4.706E-02         F               0         Tower Y orientation angle, node 7, rad
         54    9.004E-02, -4.680E-02,  9.948E-01         F               0         Tower Z orientation angle, node 7, rad
         55    9.959E-01,  5.087E-03, -9.016E-02         F               0         Tower X orientation angle, node 8, rad
         56   -8.288E-04,  9.989E-01,  4.721E-02         F               0         Tower Y orientation angle, node 8, rad
         57    9.030E-02, -4.694E-02,  9.948E-01         F               0         Tower Z orientation angle, node 8, rad
         58    9.959E-01,  5.095E-03, -9.033E-02         F               0         Tower X orientation angle, node 9, rad
         59   -8.194E-04,  9.989E-01,  4.731E-02         F               0         Tower Y orientation angle, node 9, rad
         60    9.047E-02, -4.704E-02,  9.948E-01         F               0         Tower Z orientation angle, node 9, rad
         61    9.959E-01,  5.100E-03, -9.042E-02         F               0         Tower X orientation angle, node 10, rad
         62   -8.133E-04,  9.989E-01,  4.738E-02         F               0         Tower Y orientation angle, node 10, rad
         63    9.056E-02, -4.711E-02,  9.948E-01         F               0         Tower Z orientation angle, node 10, rad
         64    9.959E-01,  5.102E-03, -9.046E-02         F               0         Tower X orientation angle, node 11, rad
         65   -8.099E-04,  9.989E-01,  4.742E-02         F               0         Tower Y orientation angle, node 11, rad
         66    9.060E-02, -4.715E-02,  9.948E-01         F               0         Tower Z orientation angle, node 11, rad
         67   -5.144E-03                                 F               0         Tower X translation velocity, node 1, m/s
         68    4.486E-03                                 F               0         Tower Y translation velocity, node 1, m/s
         69    3.044E-03                                 F               0         Tower Z translation velocity, node 1, m/s
         70   -4.973E-03                                 F               0         Tower X translation velocity, node 2, m/s
         71    7.595E-03                                 F               0         Tower Y translation velocity, node 2, m/s
         72    3.171E-03                                 F               0         Tower Z translation velocity, node 2, m/s
         73   -4.793E-03                                 F               0         Tower X translation velocity, node 3, m/s
         74    1.076E-02                                 F               0         Tower Y translation velocity, node 3, m/s
         75    3.300E-03                                 F               0         Tower Z translation velocity, node 3, m/s
         76   -4.606E-03                                 F               0         Tower X translation velocity, node 4, m/s
         77    1.397E-02                                 F               0         Tower Y translation velocity, node 4, m/s
         78    3.432E-03                                 F               0         Tower Z translation velocity, node 4, m/s
         79   -4.413E-03                                 F               0         Tower X translation velocity, node 5, m/s
         80    1.722E-02                                 F               0         Tower Y translation velocity, node 5, m/s
         81    3.566E-03                                 F               0         Tower Z translation velocity, node 5, m/s
         82   -4.213E-03                                 F               0         Tower X translation velocity, node 6, m/s
         83    2.050E-02                                 F               0         Tower Y translation velocity, node 6, m/s
         84    3.701E-03                                 F               0         Tower Z translation velocity, node 6, m/s
         85   -4.010E-03                                 F               0         Tower X translation velocity, node 7, m/s
         86    2.381E-02                                 F               0         Tower Y translation velocity, node 7, m/s
         87    3.838E-03                                 F               0         Tower Z translation velocity, node 7, m/s
         88   -3.802E-03                                 F               0         Tower X translation velocity, node 8, m/s
         89    2.714E-02                                 F               0         Tower Y translation velocity, node 8, m/s
         90    3.976E-03                                 F               0         Tower Z translation velocity, node 8, m/s
         91   -3.591E-03                                 F               0         Tower X translation velocity, node 9, m/s
         92    3.049E-02                                 F               0         Tower Y translation velocity, node 9, m/s
         93    4.115E-03                                 F               0         Tower Z translation velocity, node 9, m/s
         94   -3.378E-03                                 F               0         Tower X translation velocity, node 10, m/s
         95    3.385E-02                                 F               0         Tower Y translation velocity, node 10, m/s
         96    4.255E-03                                 F               0         Tower Z translation velocity, node 10, m/s
         97   -3.164E-03                                 F               0         Tower X translation velocity, node 11, m/s
         98    3.722E-02                                 F               0         Tower Y translation velocity, node 11, m/s
         99    4.395E-03                                 F               0         Tower Z translation velocity, node 11, m/s
        100    1.907E+01                                 F               0         Hub X translation displacement, node 1, m
        101   -7.455E+00                                 F               0         Hub Y translation displacement, node 1, m
        102    1.242E-01                                 F               0         Hub Z translation displacement, node 1, m
        103    9.810E-01,  1.000E-02, -1.939E-01         F               0         Hub X orientation angle, node 1, rad
        104    1.332E-02, -9.998E-01,  1.583E-02         F               0         Hub Y orientation angle, node 1, rad
        105   -1.937E-01, -1.812E-02, -9.809E-01         F               0         Hub Z orientation angle, node 1, rad
        106    6.941E-01                                 F               0         Hub X rotation velocity, node 1, rad/s
        107    7.095E-03                                 F               0         Hub Y rotation velocity, node 1, rad/s
        108   -1.372E-01                                 F               0         Hub Z rotation velocity, node 1, rad/s
        109    9.801E-01,  3.966E-02, -1.943E-01         F               0         Blade root 1 X orientation angle, node 1, rad
        110    4.242E-02, -9.990E-01,  1.007E-02         F               0         Blade root 1 Y orientation angle, node 1, rad
        111   -1.937E-01, -1.812E-02, -9.809E-01         F               0         Blade root 1 Z orientation angle, node 1, rad
        112    9.857E-01, -4.367E-03, -1.684E-01         F               0         Blade root 2 X orientation angle, node 1, rad
        113   -1.453E-01,  4.843E-01, -8.628E-01         F               0         Blade root 2 Y orientation angle, node 1, rad
        114    8.533E-02,  8.749E-01,  4.767E-01         F               0         Blade root 2 Z orientation angle, node 1, rad
        115    9.757E-01, -5.298E-03, -2.188E-01         F               0         Blade root 3 X orientation angle, node 1, rad
        116    1.902E-01,  5.157E-01,  8.354E-01         F               0         Blade root 3 Y orientation angle, node 1, rad
        117    1.084E-01, -8.568E-01,  5.042E-01         F               0         Blade root 3 Z orientation angle, node 1, rad
        118    1.742E+01                                 F               0         Blade 1 X translation displacement, node 1, m
        119   -7.556E+00                                 F               0         Blade 1 Y translation displacement, node 1, m
        120   -1.082E+01                                 F               0         Blade 1 Z translation displacement, node 1, m
        121    1.702E+01                                 F               0         Blade 1 X translation displacement, node 2, m
        122   -7.580E+00                                 F               0         Blade 1 Y translation displacement, node 2, m
        123   -1.346E+01                                 F               0         Blade 1 Z translation displacement, node 2, m
        124    1.160E+01                                 F               0         Blade 1 X translation displacement, node 3, m
        125   -7.909E+00                                 F               0         Blade 1 Y translation displacement, node 3, m
        126   -4.931E+01                                 F               0         Blade 1 Z translation displacement, node 3, m
        127    1.045E+01                                 F               0         Blade 1 X translation displacement, node 4, m
        128   -7.979E+00                                 F               0         Blade 1 Y translation displacement, node 4, m
        129   -5.695E+01                                 F               0         Blade 1 Z translation displacement, node 4, m
        130    9.296E+00                                 F               0         Blade 1 X translation displacement, node 5, m
        131   -8.049E+00                                 F               0         Blade 1 Y translation displacement, node 5, m
        132   -6.460E+01                                 F               0         Blade 1 Z translation displacement, node 5, m
        133    8.143E+00                                 F               0         Blade 1 X translation displacement, node 6, m
        134   -8.119E+00                                 F               0         Blade 1 Y translation displacement, node 6, m
        135   -7.224E+01                                 F               0         Blade 1 Z translation displacement, node 6, m
        136    6.989E+00                                 F               0         Blade 1 X translation displacement, node 7, m
        137   -8.189E+00                                 F               0         Blade 1 Y translation displacement, node 7, m
        138   -7.988E+01                                 F               0         Blade 1 Z translation displacement, node 7, m
        139    5.835E+00                                 F               0         Blade 1 X translation displacement, node 8, m
        140   -8.259E+00                                 F               0         Blade 1 Y translation displacement, node 8, m
        141   -8.752E+01                                 F               0         Blade 1 Z translation displacement, node 8, m
        142    4.682E+00                                 F               0         Blade 1 X translation displacement, node 9, m
        143   -8.329E+00                                 F               0         Blade 1 Y translation displacement, node 9, m
        144   -9.516E+01                                 F               0         Blade 1 Z translation displacement, node 9, m
        145    3.528E+00                                 F               0         Blade 1 X translation displacement, node 10, m
        146   -8.399E+00                                 F               0         Blade 1 Y translation displacement, node 10, m
        147   -1.028E+02                                 F               0         Blade 1 Z translation displacement, node 10, m
        148    2.375E+00                                 F               0         Blade 1 X translation displacement, node 11, m
        149   -8.469E+00                                 F               0         Blade 1 Y translation displacement, node 11, m
        150   -1.104E+02                                 F               0         Blade 1 Z translation displacement, node 11, m
        151    1.221E+00                                 F               0         Blade 1 X translation displacement, node 12, m
        152   -8.539E+00                                 F               0         Blade 1 Y translation displacement, node 12, m
        153   -1.181E+02                                 F               0         Blade 1 Z translation displacement, node 12, m
        154    6.741E-02                                 F               0         Blade 1 X translation displacement, node 13, m
        155   -8.609E+00                                 F               0         Blade 1 Y translation displacement, node 13, m
        156   -1.257E+02                                 F               0         Blade 1 Z translation displacement, node 13, m
        157   -1.086E+00                                 F               0         Blade 1 X translation displacement, node 14, m
        158   -8.679E+00                                 F               0         Blade 1 Y translation displacement, node 14, m
        159   -1.334E+02                                 F               0         Blade 1 Z translation displacement, node 14, m
        160   -2.240E+00                                 F               0         Blade 1 X translation displacement, node 15, m
        161   -8.749E+00                                 F               0         Blade 1 Y translation displacement, node 15, m
        162   -1.410E+02                                 F               0         Blade 1 Z translation displacement, node 15, m
        163   -3.394E+00                                 F               0         Blade 1 X translation displacement, node 16, m
        164   -8.819E+00                                 F               0         Blade 1 Y translation displacement, node 16, m
        165   -1.486E+02                                 F               0         Blade 1 Z translation displacement, node 16, m
        166   -4.547E+00                                 F               0         Blade 1 X translation displacement, node 17, m
        167   -8.890E+00                                 F               0         Blade 1 Y translation displacement, node 17, m
        168   -1.563E+02                                 F               0         Blade 1 Z translation displacement, node 17, m
        169   -5.701E+00                                 F               0         Blade 1 X translation displacement, node 18, m
        170   -8.960E+00                                 F               0         Blade 1 Y translation displacement, node 18, m
        171   -1.639E+02                                 F               0         Blade 1 Z translation displacement, node 18, m
        172   -6.854E+00                                 F               0         Blade 1 X translation displacement, node 19, m
        173   -9.030E+00                                 F               0         Blade 1 Y translation displacement, node 19, m
        174   -1.716E+02                                 F               0         Blade 1 Z translation displacement, node 19, m
        175   -8.008E+00                                 F               0         Blade 1 X translation displacement, node 20, m
        176   -9.100E+00                                 F               0         Blade 1 Y translation displacement, node 20, m
        177   -1.792E+02                                 F               0         Blade 1 Z translation displacement, node 20, m
        178   -9.162E+00                                 F               0         Blade 1 X translation displacement, node 21, m
        179   -9.170E+00                                 F               0         Blade 1 Y translation displacement, node 21, m
        180   -1.868E+02                                 F               0         Blade 1 Z translation displacement, node 21, m
        181   -1.032E+01                                 F               0         Blade 1 X translation displacement, node 22, m
        182   -9.240E+00                                 F               0         Blade 1 Y translation displacement, node 22, m
        183   -1.945E+02                                 F               0         Blade 1 Z translation displacement, node 22, m
        184   -1.147E+01                                 F               0         Blade 1 X translation displacement, node 23, m
        185   -9.310E+00                                 F               0         Blade 1 Y translation displacement, node 23, m
        186   -2.021E+02                                 F               0         Blade 1 Z translation displacement, node 23, m
        187   -1.262E+01                                 F               0         Blade 1 X translation displacement, node 24, m
        188   -9.380E+00                                 F               0         Blade 1 Y translation displacement, node 24, m
        189   -2.098E+02                                 F               0         Blade 1 Z translation displacement, node 24, m
        190   -1.378E+01                                 F               0         Blade 1 X translation displacement, node 25, m
        191   -9.450E+00                                 F               0         Blade 1 Y translation displacement, node 25, m
        192   -2.174E+02                                 F               0         Blade 1 Z translation displacement, node 25, m
        193   -1.493E+01                                 F               0         Blade 1 X translation displacement, node 26, m
        194   -9.520E+00                                 F               0         Blade 1 Y translation displacement, node 26, m
        195   -2.250E+02                                 F               0         Blade 1 Z translation displacement, node 26, m
        196   -1.608E+01                                 F               0         Blade 1 X translation displacement, node 27, m
        197   -9.590E+00                                 F               0         Blade 1 Y translation displacement, node 27, m
        198   -2.327E+02                                 F               0         Blade 1 Z translation displacement, node 27, m
        199   -1.706E+01                                 F               0         Blade 1 X translation displacement, node 28, m
        200   -9.650E+00                                 F               0         Blade 1 Y translation displacement, node 28, m
        201   -2.392E+02                                 F               0         Blade 1 Z translation displacement, node 28, m
        202    8.530E-01,  4.909E-01, -1.775E-01         F               0         Blade 1 X orientation angle, node 1, rad
        203    4.847E-01, -8.710E-01, -7.965E-02         F               0         Blade 1 Y orientation angle, node 1, rad
        204   -1.937E-01, -1.812E-02, -9.809E-01         F               0         Blade 1 Z orientation angle, node 1, rad
        205    8.530E-01,  4.909E-01, -1.775E-01         F               0         Blade 1 X orientation angle, node 2, rad
        206    4.847E-01, -8.710E-01, -7.965E-02         F               0         Blade 1 Y orientation angle, node 2, rad
        207   -1.937E-01, -1.812E-02, -9.809E-01         F               0         Blade 1 Z orientation angle, node 2, rad
        208    9.435E-01,  2.704E-01, -1.914E-01         F               0         Blade 1 X orientation angle, node 3, rad
        209    2.687E-01, -9.626E-01, -3.530E-02         F               0         Blade 1 Y orientation angle, node 3, rad
        210   -1.937E-01, -1.812E-02, -9.809E-01         F               0         Blade 1 Z orientation angle, node 3, rad
        211    9.540E-01,  2.296E-01, -1.927E-01         F               0         Blade 1 X orientation angle, node 4, rad
        212    2.287E-01, -9.731E-01, -2.719E-02         F               0         Blade 1 Y orientation angle, node 4, rad
        213   -1.937E-01, -1.812E-02, -9.809E-01         F               0         Blade 1 Z orientation angle, node 4, rad
        214    9.611E-01,  1.972E-01, -1.935E-01         F               0         Blade 1 X orientation angle, node 5, rad
        215    1.969E-01, -9.802E-01, -2.079E-02         F               0         Blade 1 Y orientation angle, node 5, rad
        216   -1.937E-01, -1.812E-02, -9.809E-01         F               0         Blade 1 Z orientation angle, node 5, rad
        217    9.660E-01,  1.711E-01, -1.940E-01         F               0         Blade 1 X orientation angle, node 6, rad
        218    1.713E-01, -9.851E-01, -1.565E-02         F               0         Blade 1 Y orientation angle, node 6, rad
        219   -1.937E-01, -1.812E-02, -9.809E-01         F               0         Blade 1 Z orientation angle, node 6, rad
        220    9.695E-01,  1.496E-01, -1.943E-01         F               0         Blade 1 X orientation angle, node 7, rad
        221    1.502E-01, -9.886E-01, -1.142E-02         F               0         Blade 1 Y orientation angle, node 7, rad
        222   -1.937E-01, -1.812E-02, -9.809E-01         F               0         Blade 1 Z orientation angle, node 7, rad
        223    9.720E-01,  1.316E-01, -1.944E-01         F               0         Blade 1 X orientation angle, node 8, rad
        224    1.326E-01, -9.911E-01, -7.887E-03         F               0         Blade 1 Y orientation angle, node 8, rad
        225   -1.937E-01, -1.812E-02, -9.809E-01         F               0         Blade 1 Z orientation angle, node 8, rad
        226    9.740E-01,  1.164E-01, -1.945E-01         F               0         Blade 1 X orientation angle, node 9, rad
        227    1.177E-01, -9.930E-01, -4.900E-03         F               0         Blade 1 Y orientation angle, node 9, rad