
Linearized model: Predictions were generated on 12-Jan-2024 at 08:43:17 using OpenFAST, compiled as a 64-bit application using single precision at commit v3.5.1
 linked with  NWTC Subroutine Library; ElastoDyn; InflowWind; AeroDyn; ServoDyn; HydroDyn; MAP++ (<1.20.10>, <Oct-20-2023>)

Description from the FAST input file: CCT-9 Campign 4 model. Input files to be run with OpenFAST 3.5.0. GitHub branch from Lu Wang (https://github.com/luwang00/openfast/tree/dev) compiled on March 7, 2023.

Simulation information:
   Simulation time:                   504.4500 s
   Rotor Speed:                         0.7074 rad/s
   Azimuth:                             0.2822 rad
   Wind Speed:                          8.0000 m/s
   Number of continuous states:         0
   Number of discrete states:           0
   Number of constraint states:         0
   Number of inputs:                  303
   Number of outputs:                   1
   Jacobians included in this file?    No

Order of inputs:
     Column   Operating Point                     Rotating Frame? Derivative Order Description
   ---------- ---------------                     --------------- ---------------- -----------
          1   -1.080E+01                                 F               0         X-component position of node 1 (hub), m
          2    0.000E+00                                 F               0         Y-component position of node 1 (hub), m
          3    1.497E+02                                 F               0         Z-component position of node 1 (hub), m
          4    9.317E+00                                 F               0         X-component position of node 2 (blade 1, node 1), m
          5   -9.427E+00                                 F               0         Y-component position of node 2 (blade 1, node 1), m
          6    1.550E+02                                 F               0         Z-component position of node 2 (blade 1, node 1), m
          7    9.566E+00                                 F               0         X-component position of node 3 (blade 1, node 2), m
          8   -9.859E+00                                 F               0         Y-component position of node 3 (blade 1, node 2), m
          9    1.562E+02                                 F               0         Z-component position of node 3 (blade 1, node 2), m
         10    1.295E+01                                 F               0         X-component position of node 4 (blade 1, node 3), m
         11   -1.574E+01                                 F               0         Y-component position of node 4 (blade 1, node 3), m
         12    1.731E+02                                 F               0         Z-component position of node 4 (blade 1, node 3), m
         13    1.368E+01                                 F               0         X-component position of node 5 (blade 1, node 4), m
         14   -1.699E+01                                 F               0         Y-component position of node 5 (blade 1, node 4), m
         15    1.766E+02                                 F               0         Z-component position of node 5 (blade 1, node 4), m
         16    1.440E+01                                 F               0         X-component position of node 6 (blade 1, node 5), m
         17   -1.824E+01                                 F               0         Y-component position of node 6 (blade 1, node 5), m
         18    1.802E+02                                 F               0         Z-component position of node 6 (blade 1, node 5), m
         19    1.512E+01                                 F               0         X-component position of node 7 (blade 1, node 6), m
         20   -1.949E+01                                 F               0         Y-component position of node 7 (blade 1, node 6), m
         21    1.838E+02                                 F               0         Z-component position of node 7 (blade 1, node 6), m
         22    1.584E+01                                 F               0         X-component position of node 8 (blade 1, node 7), m
         23   -2.075E+01                                 F               0         Y-component position of node 8 (blade 1, node 7), m
         24    1.874E+02                                 F               0         Z-component position of node 8 (blade 1, node 7), m
         25    1.656E+01                                 F               0         X-component position of node 9 (blade 1, node 8), m
         26   -2.200E+01                                 F               0         Y-component position of node 9 (blade 1, node 8), m
         27    1.910E+02                                 F               0         Z-component position of node 9 (blade 1, node 8), m
         28    1.729E+01                                 F               0         X-component position of node 10 (blade 1, node 9), m
         29   -2.325E+01                                 F               0         Y-component position of node 10 (blade 1, node 9), m
         30    1.946E+02                                 F               0         Z-component position of node 10 (blade 1, node 9), m
         31    1.801E+01                                 F               0         X-component position of node 11 (blade 1, node 10), m
         32   -2.450E+01                                 F               0         Y-component position of node 11 (blade 1, node 10), m
         33    1.982E+02                                 F               0         Z-component position of node 11 (blade 1, node 10), m
         34    1.873E+01                                 F               0         X-component position of node 12 (blade 1, node 11), m
         35   -2.576E+01                                 F               0         Y-component position of node 12 (blade 1, node 11), m
         36    2.018E+02                                 F               0         Z-component position of node 12 (blade 1, node 11), m
         37    1.945E+01                                 F               0         X-component position of node 13 (blade 1, node 12), m
         38   -2.701E+01                                 F               0         Y-component position of node 13 (blade 1, node 12), m
         39    2.053E+02                                 F               0         Z-component position of node 13 (blade 1, node 12), m
         40    2.017E+01                                 F               0         X-component position of node 14 (blade 1, node 13), m
         41   -2.826E+01                                 F               0         Y-component position of node 14 (blade 1, node 13), m
         42    2.089E+02                                 F               0         Z-component position of node 14 (blade 1, node 13), m
         43    2.089E+01                                 F               0         X-component position of node 15 (blade 1, node 14), m
         44   -2.951E+01                                 F               0         Y-component position of node 15 (blade 1, node 14), m
         45    2.125E+02                                 F               0         Z-component position of node 15 (blade 1, node 14), m
         46    2.162E+01                                 F               0         X-component position of node 16 (blade 1, node 15), m
         47   -3.077E+01                                 F               0         Y-component position of node 16 (blade 1, node 15), m
         48    2.161E+02                                 F               0         Z-component position of node 16 (blade 1, node 15), m
         49    2.234E+01                                 F               0         X-component position of node 17 (blade 1, node 16), m
         50   -3.202E+01                                 F               0         Y-component position of node 17 (blade 1, node 16), m
         51    2.197E+02                                 F               0         Z-component position of node 17 (blade 1, node 16), m
         52    2.306E+01                                 F               0         X-component position of node 18 (blade 1, node 17), m
         53   -3.327E+01                                 F               0         Y-component position of node 18 (blade 1, node 17), m
         54    2.233E+02                                 F               0         Z-component position of node 18 (blade 1, node 17), m
         55    2.378E+01                                 F               0         X-component position of node 19 (blade 1, node 18), m
         56   -3.452E+01                                 F               0         Y-component position of node 19 (blade 1, node 18), m
         57    2.269E+02                                 F               0         Z-component position of node 19 (blade 1, node 18), m
         58    2.450E+01                                 F               0         X-component position of node 20 (blade 1, node 19), m
         59   -3.578E+01                                 F               0         Y-component position of node 20 (blade 1, node 19), m
         60    2.305E+02                                 F               0         Z-component position of node 20 (blade 1, node 19), m
         61    2.523E+01                                 F               0         X-component position of node 21 (blade 1, node 20), m
         62   -3.703E+01                                 F               0         Y-component position of node 21 (blade 1, node 20), m
         63    2.340E+02                                 F               0         Z-component position of node 21 (blade 1, node 20), m
         64    2.595E+01                                 F               0         X-component position of node 22 (blade 1, node 21), m
         65   -3.828E+01                                 F               0         Y-component position of node 22 (blade 1, node 21), m
         66    2.376E+02                                 F               0         Z-component position of node 22 (blade 1, node 21), m
         67    2.667E+01                                 F               0         X-component position of node 23 (blade 1, node 22), m
         68   -3.954E+01                                 F               0         Y-component position of node 23 (blade 1, node 22), m
         69    2.412E+02                                 F               0         Z-component position of node 23 (blade 1, node 22), m
         70    2.739E+01                                 F               0         X-component position of node 24 (blade 1, node 23), m
         71   -4.079E+01                                 F               0         Y-component position of node 24 (blade 1, node 23), m
         72    2.448E+02                                 F               0         Z-component position of node 24 (blade 1, node 23), m
         73    2.811E+01                                 F               0         X-component position of node 25 (blade 1, node 24), m
         74   -4.204E+01                                 F               0         Y-component position of node 25 (blade 1, node 24), m
         75    2.484E+02                                 F               0         Z-component position of node 25 (blade 1, node 24), m
         76    2.884E+01                                 F               0         X-component position of node 26 (blade 1, node 25), m
         77   -4.329E+01                                 F               0         Y-component position of node 26 (blade 1, node 25), m
         78    2.520E+02                                 F               0         Z-component position of node 26 (blade 1, node 25), m
         79    2.956E+01                                 F               0         X-component position of node 27 (blade 1, node 26), m
         80   -4.455E+01                                 F               0         Y-component position of node 27 (blade 1, node 26), m
         81    2.556E+02                                 F               0         Z-component position of node 27 (blade 1, node 26), m
         82    3.028E+01                                 F               0         X-component position of node 28 (blade 1, node 27), m
         83   -4.580E+01                                 F               0         Y-component position of node 28 (blade 1, node 27), m
         84    2.592E+02                                 F               0         Z-component position of node 28 (blade 1, node 27), m
         85    3.089E+01                                 F               0         X-component position of node 29 (blade 1, node 28), m
         86   -4.686E+01                                 F               0         Y-component position of node 29 (blade 1, node 28), m
         87    2.622E+02                                 F               0         Z-component position of node 29 (blade 1, node 28), m
         88    7.509E+00                                 F               0         X-component position of node 30 (blade 2, node 1), m
         89   -1.127E+01                                 F               0         Y-component position of node 30 (blade 2, node 1), m
         90    1.457E+02                                 F               0         Z-component position of node 30 (blade 2, node 1), m
         91    7.323E+00                                 F               0         X-component position of node 31 (blade 2, node 2), m
         92   -1.215E+01                                 F               0         Y-component position of node 31 (blade 2, node 2), m
         93    1.448E+02                                 F               0         Z-component position of node 31 (blade 2, node 2), m
         94    4.787E+00                                 F               0         X-component position of node 32 (blade 2, node 3), m
         95   -2.409E+01                                 F               0         Y-component position of node 32 (blade 2, node 3), m
         96    1.313E+02                                 F               0         Z-component position of node 32 (blade 2, node 3), m
         97    4.247E+00                                 F               0         X-component position of node 33 (blade 2, node 4), m
         98   -2.663E+01                                 F               0         Y-component position of node 33 (blade 2, node 4), m
         99    1.284E+02                                 F               0         Z-component position of node 33 (blade 2, node 4), m
        100    3.707E+00                                 F               0         X-component position of node 34 (blade 2, node 5), m
        101   -2.917E+01                                 F               0         Y-component position of node 34 (blade 2, node 5), m
        102    1.256E+02                                 F               0         Z-component position of node 34 (blade 2, node 5), m
        103    3.167E+00                                 F               0         X-component position of node 35 (blade 2, node 6), m
        104   -3.171E+01                                 F               0         Y-component position of node 35 (blade 2, node 6), m
        105    1.227E+02                                 F               0         Z-component position of node 35 (blade 2, node 6), m
        106    2.626E+00                                 F               0         X-component position of node 36 (blade 2, node 7), m
        107   -3.426E+01                                 F               0         Y-component position of node 36 (blade 2, node 7), m
        108    1.199E+02                                 F               0         Z-component position of node 36 (blade 2, node 7), m
        109    2.086E+00                                 F               0         X-component position of node 37 (blade 2, node 8), m
        110   -3.680E+01                                 F               0         Y-component position of node 37 (blade 2, node 8), m
        111    1.170E+02                                 F               0         Z-component position of node 37 (blade 2, node 8), m
        112    1.546E+00                                 F               0         X-component position of node 38 (blade 2, node 9), m
        113   -3.934E+01                                 F               0         Y-component position of node 38 (blade 2, node 9), m
        114    1.141E+02                                 F               0         Z-component position of node 38 (blade 2, node 9), m
        115    1.006E+00                                 F               0         X-component position of node 39 (blade 2, node 10), m
        116   -4.188E+01                                 F               0         Y-component position of node 39 (blade 2, node 10), m
        117    1.113E+02                                 F               0         Z-component position of node 39 (blade 2, node 10), m
        118    4.656E-01                                 F               0         X-component position of node 40 (blade 2, node 11), m
        119   -4.443E+01                                 F               0         Y-component position of node 40 (blade 2, node 11), m
        120    1.084E+02                                 F               0         Z-component position of node 40 (blade 2, node 11), m
        121   -7.467E-02                                 F               0         X-component position of node 41 (blade 2, node 12), m
        122   -4.697E+01                                 F               0         Y-component position of node 41 (blade 2, node 12), m
        123    1.055E+02                                 F               0         Z-component position of node 41 (blade 2, node 12), m
        124   -6.149E-01                                 F               0         X-component position of node 42 (blade 2, node 13), m
        125   -4.951E+01                                 F               0         Y-component position of node 42 (blade 2, node 13), m
        126    1.027E+02                                 F               0         Z-component position of node 42 (blade 2, node 13), m
        127   -1.155E+00                                 F               0         X-component position of node 43 (blade 2, node 14), m
        128   -5.205E+01                                 F               0         Y-component position of node 43 (blade 2, node 14), m
        129    9.981E+01                                 F               0         Z-component position of node 43 (blade 2, node 14), m
        130   -1.695E+00                                 F               0         X-component position of node 44 (blade 2, node 15), m
        131   -5.460E+01                                 F               0         Y-component position of node 44 (blade 2, node 15), m
        132    9.694E+01                                 F               0         Z-component position of node 44 (blade 2, node 15), m
        133   -2.236E+00                                 F               0         X-component position of node 45 (blade 2, node 16), m
        134   -5.714E+01                                 F               0         Y-component position of node 45 (blade 2, node 16), m
        135    9.408E+01                                 F               0         Z-component position of node 45 (blade 2, node 16), m
        136   -2.776E+00                                 F               0         X-component position of node 46 (blade 2, node 17), m
        137   -5.968E+01                                 F               0         Y-component position of node 46 (blade 2, node 17), m
        138    9.122E+01                                 F               0         Z-component position of node 46 (blade 2, node 17), m
        139   -3.316E+00                                 F               0         X-component position of node 47 (blade 2, node 18), m
        140   -6.222E+01                                 F               0         Y-component position of node 47 (blade 2, node 18), m
        141    8.835E+01                                 F               0         Z-component position of node 47 (blade 2, node 18), m
        142   -3.856E+00                                 F               0         X-component position of node 48 (blade 2, node 19), m
        143   -6.477E+01                                 F               0         Y-component position of node 48 (blade 2, node 19), m
        144    8.549E+01                                 F               0         Z-component position of node 48 (blade 2, node 19), m
        145   -4.396E+00                                 F               0         X-component position of node 49 (blade 2, node 20), m
        146   -6.731E+01                                 F               0         Y-component position of node 49 (blade 2, node 20), m
        147    8.262E+01                                 F               0         Z-component position of node 49 (blade 2, node 20), m
        148   -4.937E+00                                 F               0         X-component position of node 50 (blade 2, node 21), m
        149   -6.985E+01                                 F               0         Y-component position of node 50 (blade 2, node 21), m
        150    7.976E+01                                 F               0         Z-component position of node 50 (blade 2, node 21), m
        151   -5.477E+00                                 F               0         X-component position of node 51 (blade 2, node 22), m
        152   -7.239E+01                                 F               0         Y-component position of node 51 (blade 2, node 22), m
        153    7.690E+01                                 F               0         Z-component position of node 51 (blade 2, node 22), m
        154   -6.017E+00                                 F               0         X-component position of node 52 (blade 2, node 23), m
        155   -7.494E+01                                 F               0         Y-component position of node 52 (blade 2, node 23), m
        156    7.403E+01                                 F               0         Z-component position of node 52 (blade 2, node 23), m
        157   -6.557E+00                                 F               0         X-component position of node 53 (blade 2, node 24), m
        158   -7.748E+01                                 F               0         Y-component position of node 53 (blade 2, node 24), m
        159    7.117E+01                                 F               0         Z-component position of node 53 (blade 2, node 24), m
        160   -7.097E+00                                 F               0         X-component position of node 54 (blade 2, node 25), m
        161   -8.002E+01                                 F               0         Y-component position of node 54 (blade 2, node 25), m
        162    6.830E+01                                 F               0         Z-component position of node 54 (blade 2, node 25), m
        163   -7.638E+00                                 F               0         X-component position of node 55 (blade 2, node 26), m
        164   -8.257E+01                                 F               0         Y-component position of node 55 (blade 2, node 26), m
        165    6.544E+01                                 F               0         Z-component position of node 55 (blade 2, node 26), m
        166   -8.178E+00                                 F               0         X-component position of node 56 (blade 2, node 27), m
        167   -8.511E+01                                 F               0         Y-component position of node 56 (blade 2, node 27), m
        168    6.258E+01                                 F               0         Z-component position of node 56 (blade 2, node 27), m
        169   -8.636E+00                                 F               0         X-component position of node 57 (blade 2, node 28), m
        170   -8.726E+01                                 F               0         Y-component position of node 57 (blade 2, node 28), m
        171    6.015E+01                                 F               0         Z-component position of node 57 (blade 2, node 28), m
        172    8.023E+00                                 F               0         X-component position of node 58 (blade 3, node 1), m
        173   -2.197E+00                                 F               0         Y-component position of node 58 (blade 3, node 1), m
        174    1.488E+02                                 F               0         Z-component position of node 58 (blade 3, node 1), m
        175    7.960E+00                                 F               0         X-component position of node 59 (blade 3, node 2), m
        176   -8.867E-01                                 F               0         Y-component position of node 59 (blade 3, node 2), m
        177    1.486E+02                                 F               0         Z-component position of node 59 (blade 3, node 2), m
        178    7.108E+00                                 F               0         X-component position of node 60 (blade 3, node 3), m
        179    1.693E+01                                 F               0         Y-component position of node 60 (blade 3, node 3), m
        180    1.452E+02                                 F               0         Z-component position of node 60 (blade 3, node 3), m
        181    6.926E+00                                 F               0         X-component position of node 61 (blade 3, node 4), m
        182    2.072E+01                                 F               0         Y-component position of node 61 (blade 3, node 4), m
        183    1.444E+02                                 F               0         Z-component position of node 61 (blade 3, node 4), m
        184    6.744E+00                                 F               0         X-component position of node 62 (blade 3, node 5), m
        185    2.452E+01                                 F               0         Y-component position of node 62 (blade 3, node 5), m
        186    1.437E+02                                 F               0         Z-component position of node 62 (blade 3, node 5), m
        187    6.563E+00                                 F               0         X-component position of node 63 (blade 3, node 6), m
        188    2.831E+01                                 F               0         Y-component position of node 63 (blade 3, node 6), m
        189    1.430E+02                                 F               0         Z-component position of node 63 (blade 3, node 6), m
        190    6.381E+00                                 F               0         X-component position of node 64 (blade 3, node 7), m
        191    3.211E+01                                 F               0         Y-component position of node 64 (blade 3, node 7), m
        192    1.423E+02                                 F               0         Z-component position of node 64 (blade 3, node 7), m
        193    6.199E+00                                 F               0         X-component position of node 65 (blade 3, node 8), m
        194    3.590E+01                                 F               0         Y-component position of node 65 (blade 3, node 8), m
        195    1.415E+02                                 F               0         Z-component position of node 65 (blade 3, node 8), m
        196    6.018E+00                                 F               0         X-component position of node 66 (blade 3, node 9), m
        197    3.970E+01                                 F               0         Y-component position of node 66 (blade 3, node 9), m
        198    1.408E+02                                 F               0         Z-component position of node 66 (blade 3, node 9), m
        199    5.836E+00                                 F               0         X-component position of node 67 (blade 3, node 10), m
        200    4.349E+01                                 F               0         Y-component position of node 67 (blade 3, node 10), m
        201    1.401E+02                                 F               0         Z-component position of node 67 (blade 3, node 10), m
        202    5.654E+00                                 F               0         X-component position of node 68 (blade 3, node 11), m
        203    4.729E+01                                 F               0         Y-component position of node 68 (blade 3, node 11), m
        204    1.394E+02                                 F               0         Z-component position of node 68 (blade 3, node 11), m
        205    5.473E+00                                 F               0         X-component position of node 69 (blade 3, node 12), m
        206    5.108E+01                                 F               0         Y-component position of node 69 (blade 3, node 12), m
        207    1.387E+02                                 F               0         Z-component position of node 69 (blade 3, node 12), m
        208    5.291E+00                                 F               0         X-component position of node 70 (blade 3, node 13), m
        209    5.488E+01                                 F               0         Y-component position of node 70 (blade 3, node 13), m
        210    1.379E+02                                 F               0         Z-component position of node 70 (blade 3, node 13), m
        211    5.109E+00                                 F               0         X-component position of node 71 (blade 3, node 14), m