
Linearized model: Predictions were generated on 12-Jan-2024 at 08:43:17 using OpenFAST, compiled as a 64-bit application using single precision at commit v3.5.1
 linked with  NWTC Subroutine Library; ElastoDyn; InflowWind; AeroDyn; ServoDyn; HydroDyn; MAP++ (<1.20.10>, <Oct-20-2023>)

Description from the FAST input file: CCT-9 Campign 4 model. Input files to be run with OpenFAST 3.5.0. GitHub branch from Lu Wang (https://github.com/luwang00/openfast/tree/dev) compiled on March 7, 2023.

Simulation information:
   Simulation time:                   502.2250 s
   Rotor Speed:                         0.7076 rad/s
   Azimuth:                             4.9912 rad
   Wind Speed:                          8.0000 m/s
   Number of continuous states:         0
   Number of discrete states:           0
   Number of constraint states:         0
   Number of inputs:                 1746
   Number of outputs:                   4
   Jacobians included in this file?    No

Order of inputs:
     Column   Operating Point                     Rotating Frame? Derivative Order Description
   ---------- ---------------                     --------------- ---------------- -----------
          1    7.338E+00                                 F               0         Tower X translation displacement, node 1, m
          2   -1.330E+00                                 F               0         Tower Y translation displacement, node 1, m
          3   -2.028E-01                                 F               0         Tower Z translation displacement, node 1, m
          4    8.398E+00                                 F               0         Tower X translation displacement, node 2, m
          5   -1.908E+00                                 F               0         Tower Y translation displacement, node 2, m
          6   -2.619E-01                                 F               0         Tower Z translation displacement, node 2, m
          7    9.473E+00                                 F               0         Tower X translation displacement, node 3, m
          8   -2.492E+00                                 F               0         Tower Y translation displacement, node 3, m
          9   -3.227E-01                                 F               0         Tower Z translation displacement, node 3, m
         10    1.056E+01                                 F               0         Tower X translation displacement, node 4, m
         11   -3.080E+00                                 F               0         Tower Y translation displacement, node 4, m
         12   -3.847E-01                                 F               0         Tower Z translation displacement, node 4, m
         13    1.166E+01                                 F               0         Tower X translation displacement, node 5, m
         14   -3.672E+00                                 F               0         Tower Y translation displacement, node 5, m
         15   -4.478E-01                                 F               0         Tower Z translation displacement, node 5, m
         16    1.276E+01                                 F               0         Tower X translation displacement, node 6, m
         17   -4.267E+00                                 F               0         Tower Y translation displacement, node 6, m
         18   -5.117E-01                                 F               0         Tower Z translation displacement, node 6, m
         19    1.387E+01                                 F               0         Tower X translation displacement, node 7, m
         20   -4.865E+00                                 F               0         Tower Y translation displacement, node 7, m
         21   -5.761E-01                                 F               0         Tower Z translation displacement, node 7, m
         22    1.499E+01                                 F               0         Tower X translation displacement, node 8, m
         23   -5.464E+00                                 F               0         Tower Y translation displacement, node 8, m
         24   -6.411E-01                                 F               0         Tower Z translation displacement, node 8, m
         25    1.610E+01                                 F               0         Tower X translation displacement, node 9, m
         26   -6.066E+00                                 F               0         Tower Y translation displacement, node 9, m
         27   -7.063E-01                                 F               0         Tower Z translation displacement, node 9, m
         28    1.722E+01                                 F               0         Tower X translation displacement, node 10, m
         29   -6.669E+00                                 F               0         Tower Y translation displacement, node 10, m
         30   -7.718E-01                                 F               0         Tower Z translation displacement, node 10, m
         31    1.834E+01                                 F               0         Tower X translation displacement, node 11, m
         32   -7.272E+00                                 F               0         Tower Y translation displacement, node 11, m
         33   -8.374E-01                                 F               0         Tower Z translation displacement, node 11, m
         34    9.964E-01,  4.626E-03, -8.515E-02         F               0         Tower X orientation angle, node 1, rad
         35   -6.350E-04,  9.989E-01,  4.684E-02         F               0         Tower Y orientation angle, node 1, rad
         36    8.527E-02, -4.661E-02,  9.953E-01         F               0         Tower Z orientation angle, node 1, rad
         37    9.963E-01,  4.683E-03, -8.637E-02         F               0         Tower X orientation angle, node 2, rad
         38   -5.980E-04,  9.989E-01,  4.727E-02         F               0         Tower Y orientation angle, node 2, rad
         39    8.649E-02, -4.704E-02,  9.951E-01         F               0         Tower Z orientation angle, node 2, rad
         40    9.962E-01,  4.733E-03, -8.742E-02         F               0         Tower X orientation angle, node 3, rad
         41   -5.644E-04,  9.989E-01,  4.765E-02         F               0         Tower Y orientation angle, node 3, rad
         42    8.754E-02, -4.742E-02,  9.950E-01         F               0         Tower Z orientation angle, node 3, rad
         43    9.961E-01,  4.775E-03, -8.828E-02         F               0         Tower X orientation angle, node 4, rad
         44   -5.347E-04,  9.988E-01,  4.799E-02         F               0         Tower Y orientation angle, node 4, rad
         45    8.841E-02, -4.775E-02,  9.949E-01         F               0         Tower Z orientation angle, node 4, rad
         46    9.960E-01,  4.808E-03, -8.897E-02         F               0         Tower X orientation angle, node 5, rad
         47   -5.090E-04,  9.988E-01,  4.828E-02         F               0         Tower Y orientation angle, node 5, rad
         48    8.910E-02, -4.804E-02,  9.949E-01         F               0         Tower Z orientation angle, node 5, rad
         49    9.960E-01,  4.834E-03, -8.950E-02         F               0         Tower X orientation angle, node 6, rad
         50   -4.874E-04,  9.988E-01,  4.852E-02         F               0         Tower Y orientation angle, node 6, rad
         51    8.963E-02, -4.828E-02,  9.948E-01         F               0         Tower Z orientation angle, node 6, rad
         52    9.959E-01,  4.852E-03, -8.988E-02         F               0         Tower X orientation angle, node 7, rad
         53   -4.700E-04,  9.988E-01,  4.871E-02         F               0         Tower Y orientation angle, node 7, rad
         54    9.001E-02, -4.847E-02,  9.948E-01         F               0         Tower Z orientation angle, node 7, rad
         55    9.959E-01,  4.865E-03, -9.014E-02         F               0         Tower X orientation angle, node 8, rad
         56   -4.565E-04,  9.988E-01,  4.886E-02         F               0         Tower Y orientation angle, node 8, rad
         57    9.027E-02, -4.862E-02,  9.947E-01         F               0         Tower Z orientation angle, node 8, rad
         58    9.959E-01,  4.873E-03, -9.030E-02         F               0         Tower X orientation angle, node 9, rad
         59   -4.466E-04,  9.988E-01,  4.897E-02         F               0         Tower Y orientation angle, node 9, rad
         60    9.043E-02, -4.873E-02,  9.947E-01         F               0         Tower Z orientation angle, node 9, rad
         61    9.959E-01,  4.878E-03, -9.039E-02         F               0         Tower X orientation angle, node 10, rad
         62   -4.402E-04,  9.988E-01,  4.904E-02         F               0         Tower Y orientation angle, node 10, rad
         63    9.052E-02, -4.880E-02,  9.947E-01         F               0         Tower Z orientation angle, node 10, rad
         64    9.959E-01,  4.880E-03, -9.043E-02         F               0         Tower X orientation angle, node 11, rad
         65   -4.366E-04,  9.988E-01,  4.908E-02         F               0         Tower Y orientation angle, node 11, rad
         66    9.056E-02, -4.884E-02,  9.947E-01         F               0         Tower Z orientation angle, node 11, rad
         67   -4.733E-03                                 F               0         Tower X translation velocity, node 1, m/s
         68    4.479E-03                                 F               0         Tower Y translation velocity, node 1, m/s
         69    6.088E-04                                 F               0         Tower Z translation velocity, node 1, m/s
         70   -4.803E-03                                 F               0         Tower X translation velocity, node 2, m/s
         71    6.289E-03                                 F               0         Tower Y translation velocity, node 2, m/s
         72    7.000E-04                                 F               0         Tower Z translation velocity, node 2, m/s
         73   -4.869E-03                                 F               0         Tower X translation velocity, node 3, m/s
         74    8.141E-03                                 F               0         Tower Y translation velocity, node 3, m/s
         75    7.937E-04                                 F               0         Tower Z translation velocity, node 3, m/s
         76   -4.930E-03                                 F               0         Tower X translation velocity, node 4, m/s
         77    1.003E-02                                 F               0         Tower Y translation velocity, node 4, m/s
         78    8.894E-04                                 F               0         Tower Z translation velocity, node 4, m/s
         79   -4.987E-03                                 F               0         Tower X translation velocity, node 5, m/s
         80    1.194E-02                                 F               0         Tower Y translation velocity, node 5, m/s
         81    9.867E-04                                 F               0         Tower Z translation velocity, node 5, m/s
         82   -5.037E-03                                 F               0         Tower X translation velocity, node 6, m/s
         83    1.389E-02                                 F               0         Tower Y translation velocity, node 6, m/s
         84    1.085E-03                                 F               0         Tower Z translation velocity, node 6, m/s
         85   -5.083E-03                                 F               0         Tower X translation velocity, node 7, m/s
         86    1.585E-02                                 F               0         Tower Y translation velocity, node 7, m/s
         87    1.185E-03                                 F               0         Tower Z translation velocity, node 7, m/s
         88   -5.123E-03                                 F               0         Tower X translation velocity, node 8, m/s
         89    1.783E-02                                 F               0         Tower Y translation velocity, node 8, m/s
         90    1.285E-03                                 F               0         Tower Z translation velocity, node 8, m/s
         91   -5.158E-03                                 F               0         Tower X translation velocity, node 9, m/s
         92    1.983E-02                                 F               0         Tower Y translation velocity, node 9, m/s
         93    1.386E-03                                 F               0         Tower Z translation velocity, node 9, m/s
         94   -5.189E-03                                 F               0         Tower X translation velocity, node 10, m/s
         95    2.183E-02                                 F               0         Tower Y translation velocity, node 10, m/s
         96    1.487E-03                                 F               0         Tower Z translation velocity, node 10, m/s
         97   -5.218E-03                                 F               0         Tower X translation velocity, node 11, m/s
         98    2.385E-02                                 F               0         Tower Y translation velocity, node 11, m/s
         99    1.589E-03                                 F               0         Tower Z translation velocity, node 11, m/s
        100    1.910E+01                                 F               0         Hub X translation displacement, node 1, m
        101   -7.708E+00                                 F               0         Hub Y translation displacement, node 1, m
        102    9.771E-02                                 F               0         Hub Z translation displacement, node 1, m
        103    9.810E-01,  9.958E-03, -1.939E-01         F               0         Hub X orientation angle, node 1, rad
        104   -1.868E-01,  3.210E-01, -9.285E-01         F               0         Hub Y orientation angle, node 1, rad
        105    5.301E-02,  9.470E-01,  3.168E-01         F               0         Hub Z orientation angle, node 1, rad
        106    6.940E-01                                 F               0         Hub X rotation velocity, node 1, rad/s
        107    7.042E-03                                 F               0         Hub Y rotation velocity, node 1, rad/s
        108   -1.372E-01                                 F               0         Hub Z rotation velocity, node 1, rad/s
        109    9.861E-01,  4.298E-04, -1.663E-01         F               0         Blade root 1 X orientation angle, node 1, rad
        110   -1.576E-01,  3.212E-01, -9.338E-01         F               0         Blade root 1 Y orientation angle, node 1, rad
        111    5.301E-02,  9.470E-01,  3.168E-01         F               0         Blade root 1 Z orientation angle, node 1, rad
        112    9.764E-01, -9.614E-03, -2.157E-01         F               0         Blade root 2 X orientation angle, node 1, rad
        113    1.683E-01,  6.596E-01,  7.325E-01         F               0         Blade root 2 Y orientation angle, node 1, rad
        114    1.353E-01, -7.515E-01,  6.457E-01         F               0         Blade root 2 Z orientation angle, node 1, rad
        115    9.791E-01,  3.905E-02, -1.995E-01         F               0         Blade root 3 X orientation angle, node 1, rad
        116    7.657E-02, -9.799E-01,  1.840E-01         F               0         Blade root 3 Y orientation angle, node 1, rad
        117   -1.883E-01, -1.955E-01, -9.625E-01         F               0         Blade root 3 Z orientation angle, node 1, rad
        118    1.881E+01                                 F               0         Blade 1 X translation displacement, node 1, m
        119   -2.462E+00                                 F               0         Blade 1 Y translation displacement, node 1, m
        120   -3.657E+00                                 F               0         Blade 1 Z translation displacement, node 1, m
        121    1.874E+01                                 F               0         Blade 1 X translation displacement, node 2, m
        122   -1.197E+00                                 F               0         Blade 1 Y translation displacement, node 2, m
        123   -4.562E+00                                 F               0         Blade 1 Z translation displacement, node 2, m
        124    1.781E+01                                 F               0         Blade 1 X translation displacement, node 3, m
        125    1.599E+01                                 F               0         Blade 1 Y translation displacement, node 3, m
        126   -1.686E+01                                 F               0         Blade 1 Z translation displacement, node 3, m
        127    1.761E+01                                 F               0         Blade 1 X translation displacement, node 4, m
        128    1.966E+01                                 F               0         Blade 1 Y translation displacement, node 4, m
        129   -1.949E+01                                 F               0         Blade 1 Z translation displacement, node 4, m
        130    1.741E+01                                 F               0         Blade 1 X translation displacement, node 5, m
        131    2.332E+01                                 F               0         Blade 1 Y translation displacement, node 5, m
        132   -2.211E+01                                 F               0         Blade 1 Z translation displacement, node 5, m
        133    1.721E+01                                 F               0         Blade 1 X translation displacement, node 6, m
        134    2.698E+01                                 F               0         Blade 1 Y translation displacement, node 6, m
        135   -2.473E+01                                 F               0         Blade 1 Z translation displacement, node 6, m
        136    1.701E+01                                 F               0         Blade 1 X translation displacement, node 7, m
        137    3.064E+01                                 F               0         Blade 1 Y translation displacement, node 7, m
        138   -2.735E+01                                 F               0         Blade 1 Z translation displacement, node 7, m
        139    1.681E+01                                 F               0         Blade 1 X translation displacement, node 8, m
        140    3.431E+01                                 F               0         Blade 1 Y translation displacement, node 8, m
        141   -2.997E+01                                 F               0         Blade 1 Z translation displacement, node 8, m
        142    1.661E+01                                 F               0         Blade 1 X translation displacement, node 9, m
        143    3.797E+01                                 F               0         Blade 1 Y translation displacement, node 9, m
        144   -3.259E+01                                 F               0         Blade 1 Z translation displacement, node 9, m
        145    1.641E+01                                 F               0         Blade 1 X translation displacement, node 10, m
        146    4.163E+01                                 F               0         Blade 1 Y translation displacement, node 10, m
        147   -3.521E+01                                 F               0         Blade 1 Z translation displacement, node 10, m
        148    1.621E+01                                 F               0         Blade 1 X translation displacement, node 11, m
        149    4.529E+01                                 F               0         Blade 1 Y translation displacement, node 11, m
        150   -3.783E+01                                 F               0         Blade 1 Z translation displacement, node 11, m
        151    1.601E+01                                 F               0         Blade 1 X translation displacement, node 12, m
        152    4.896E+01                                 F               0         Blade 1 Y translation displacement, node 12, m
        153   -4.046E+01                                 F               0         Blade 1 Z translation displacement, node 12, m
        154    1.581E+01                                 F               0         Blade 1 X translation displacement, node 13, m
        155    5.262E+01                                 F               0         Blade 1 Y translation displacement, node 13, m
        156   -4.308E+01                                 F               0         Blade 1 Z translation displacement, node 13, m
        157    1.561E+01                                 F               0         Blade 1 X translation displacement, node 14, m
        158    5.628E+01                                 F               0         Blade 1 Y translation displacement, node 14, m
        159   -4.570E+01                                 F               0         Blade 1 Z translation displacement, node 14, m
        160    1.541E+01                                 F               0         Blade 1 X translation displacement, node 15, m
        161    5.995E+01                                 F               0         Blade 1 Y translation displacement, node 15, m
        162   -4.832E+01                                 F               0         Blade 1 Z translation displacement, node 15, m
        163    1.522E+01                                 F               0         Blade 1 X translation displacement, node 16, m
        164    6.361E+01                                 F               0         Blade 1 Y translation displacement, node 16, m
        165   -5.094E+01                                 F               0         Blade 1 Z translation displacement, node 16, m
        166    1.502E+01                                 F               0         Blade 1 X translation displacement, node 17, m
        167    6.727E+01                                 F               0         Blade 1 Y translation displacement, node 17, m
        168   -5.356E+01                                 F               0         Blade 1 Z translation displacement, node 17, m
        169    1.482E+01                                 F               0         Blade 1 X translation displacement, node 18, m
        170    7.093E+01                                 F               0         Blade 1 Y translation displacement, node 18, m
        171   -5.618E+01                                 F               0         Blade 1 Z translation displacement, node 18, m
        172    1.462E+01                                 F               0         Blade 1 X translation displacement, node 19, m
        173    7.460E+01                                 F               0         Blade 1 Y translation displacement, node 19, m
        174   -5.880E+01                                 F               0         Blade 1 Z translation displacement, node 19, m
        175    1.442E+01                                 F               0         Blade 1 X translation displacement, node 20, m
        176    7.826E+01                                 F               0         Blade 1 Y translation displacement, node 20, m
        177   -6.143E+01                                 F               0         Blade 1 Z translation displacement, node 20, m
        178    1.422E+01                                 F               0         Blade 1 X translation displacement, node 21, m
        179    8.192E+01                                 F               0         Blade 1 Y translation displacement, node 21, m
        180   -6.405E+01                                 F               0         Blade 1 Z translation displacement, node 21, m
        181    1.402E+01                                 F               0         Blade 1 X translation displacement, node 22, m
        182    8.559E+01                                 F               0         Blade 1 Y translation displacement, node 22, m
        183   -6.667E+01                                 F               0         Blade 1 Z translation displacement, node 22, m
        184    1.382E+01                                 F               0         Blade 1 X translation displacement, node 23, m
        185    8.925E+01                                 F               0         Blade 1 Y translation displacement, node 23, m
        186   -6.929E+01                                 F               0         Blade 1 Z translation displacement, node 23, m
        187    1.362E+01                                 F               0         Blade 1 X translation displacement, node 24, m
        188    9.291E+01                                 F               0         Blade 1 Y translation displacement, node 24, m
        189   -7.191E+01                                 F               0         Blade 1 Z translation displacement, node 24, m
        190    1.342E+01                                 F               0         Blade 1 X translation displacement, node 25, m
        191    9.657E+01                                 F               0         Blade 1 Y translation displacement, node 25, m
        192   -7.453E+01                                 F               0         Blade 1 Z translation displacement, node 25, m
        193    1.322E+01                                 F               0         Blade 1 X translation displacement, node 26, m
        194    1.002E+02                                 F               0         Blade 1 Y translation displacement, node 26, m
        195   -7.715E+01                                 F               0         Blade 1 Z translation displacement, node 26, m
        196    1.302E+01                                 F               0         Blade 1 X translation displacement, node 27, m
        197    1.039E+02                                 F               0         Blade 1 Y translation displacement, node 27, m
        198   -7.977E+01                                 F               0         Blade 1 Z translation displacement, node 27, m
        199    1.285E+01                                 F               0         Blade 1 X translation displacement, node 28, m
        200    1.070E+02                                 F               0         Blade 1 Y translation displacement, node 28, m
        201   -8.200E+01                                 F               0         Blade 1 Z translation displacement, node 28, m
        202    9.495E-01, -1.461E-01,  2.778E-01         F               0         Blade 1 X orientation angle, node 1, rad
        203    3.094E-01,  2.861E-01, -9.069E-01         F               0         Blade 1 Y orientation angle, node 1, rad
        204    5.301E-02,  9.470E-01,  3.168E-01         F               0         Blade 1 Z orientation angle, node 1, rad
        205    9.495E-01, -1.461E-01,  2.778E-01         F               0         Blade 1 X orientation angle, node 2, rad
        206    3.094E-01,  2.861E-01, -9.069E-01         F               0         Blade 1 Y orientation angle, node 2, rad
        207    5.301E-02,  9.470E-01,  3.168E-01         F               0         Blade 1 Z orientation angle, node 2, rad
        208    9.957E-01, -7.413E-02,  5.498E-02         F               0         Blade 1 X orientation angle, node 3, rad
        209    7.555E-02,  3.125E-01, -9.469E-01         F               0         Blade 1 Y orientation angle, node 3, rad
        210    5.301E-02,  9.470E-01,  3.168E-01         F               0         Blade 1 Z orientation angle, node 3, rad
        211    9.980E-01, -6.087E-02,  1.495E-02         F               0         Blade 1 X orientation angle, node 4, rad
        212    3.344E-02,  3.154E-01, -9.484E-01         F               0         Blade 1 Y orientation angle, node 4, rad
        213    5.301E-02,  9.470E-01,  3.168E-01         F               0         Blade 1 Z orientation angle, node 4, rad
        214    9.986E-01, -5.038E-02, -1.650E-02         F               0         Blade 1 X orientation angle, node 5, rad
        215    3.322E-04,  3.172E-01, -9.483E-01         F               0         Blade 1 Y orientation angle, node 5, rad
        216    5.301E-02,  9.470E-01,  3.168E-01         F               0         Blade 1 Z orientation angle, node 5, rad
        217    9.983E-01, -4.194E-02, -4.165E-02         F               0         Blade 1 X orientation angle, node 6, rad
        218   -2.616E-02,  3.185E-01, -9.476E-01         F               0         Blade 1 Y orientation angle, node 6, rad
        219    5.301E-02,  9.470E-01,  3.168E-01         F               0         Blade 1 Z orientation angle, node 6, rad
        220    9.974E-01, -3.499E-02, -6.231E-02         F               0         Blade 1 X orientation angle, node 7, rad
        221   -4.793E-02,  3.193E-01, -9.464E-01         F               0         Blade 1 Y orientation angle, node 7, rad
        222    5.301E-02,  9.470E-01,  3.168E-01         F               0         Blade 1 Z orientation angle, node 7, rad
        223    9.964E-01, -2.919E-02, -7.948E-02         F               0         Blade 1 X orientation angle, node 8, rad
        224   -6.602E-02,  3.199E-01, -9.452E-01         F               0         Blade 1 Y orientation angle, node 8, rad
        225    5.301E-02,  9.470E-01,  3.168E-01         F               0         Blade 1 Z orientation angle, node 8, rad
        226    9.953E-01, -2.427E-02, -9.399E-02         F               0         Blade 1 X orientation angle, node 9, rad
        227   -8.132E-02,  3.203E-01, -9.438E-01         F               0         Blade 1 Y orientation angle, node 9, rad