
Linearized model: Predictions were generated on 12-Jan-2024 at 08:43:17 using OpenFAST, compiled as a 64-bit application using single precision at commit v3.5.1
 linked with  NWTC Subroutine Library; ElastoDyn; InflowWind; AeroDyn; ServoDyn; HydroDyn; MAP++ (<1.20.10>, <Oct-20-2023>)

Description from the FAST input file: CCT-9 Campign 4 model. Input files to be run with OpenFAST 3.5.0. GitHub branch from Lu Wang (https://github.com/luwang00/openfast/tree/dev) compiled on March 7, 2023.

Simulation information:
   Simulation time:                   505.9250 s
   Rotor Speed:                         0.7075 rad/s
   Azimuth:                             1.3257 rad
   Wind Speed:                          8.0000 m/s
   Number of continuous states:         0
   Number of discrete states:           0
   Number of constraint states:         0
   Number of inputs:                 1746
   Number of outputs:                   4
   Jacobians included in this file?    No

Order of inputs:
     Column   Operating Point                     Rotating Frame? Derivative Order Description
   ---------- ---------------                     --------------- ---------------- -----------
          1    7.319E+00                                 F               0         Tower X translation displacement, node 1, m
          2   -1.307E+00                                 F               0         Tower Y translation displacement, node 1, m
          3   -1.949E-01                                 F               0         Tower Z translation displacement, node 1, m
          4    8.379E+00                                 F               0         Tower X translation displacement, node 2, m
          5   -1.874E+00                                 F               0         Tower Y translation displacement, node 2, m
          6   -2.536E-01                                 F               0         Tower Z translation displacement, node 2, m
          7    9.455E+00                                 F               0         Tower X translation displacement, node 3, m
          8   -2.447E+00                                 F               0         Tower Y translation displacement, node 3, m
          9   -3.138E-01                                 F               0         Tower Z translation displacement, node 3, m
         10    1.054E+01                                 F               0         Tower X translation displacement, node 4, m
         11   -3.024E+00                                 F               0         Tower Y translation displacement, node 4, m
         12   -3.753E-01                                 F               0         Tower Z translation displacement, node 4, m
         13    1.164E+01                                 F               0         Tower X translation displacement, node 5, m
         14   -3.604E+00                                 F               0         Tower Y translation displacement, node 5, m
         15   -4.378E-01                                 F               0         Tower Z translation displacement, node 5, m
         16    1.274E+01                                 F               0         Tower X translation displacement, node 6, m
         17   -4.188E+00                                 F               0         Tower Y translation displacement, node 6, m
         18   -5.012E-01                                 F               0         Tower Z translation displacement, node 6, m
         19    1.385E+01                                 F               0         Tower X translation displacement, node 7, m
         20   -4.774E+00                                 F               0         Tower Y translation displacement, node 7, m
         21   -5.651E-01                                 F               0         Tower Z translation displacement, node 7, m
         22    1.497E+01                                 F               0         Tower X translation displacement, node 8, m
         23   -5.363E+00                                 F               0         Tower Y translation displacement, node 8, m
         24   -6.295E-01                                 F               0         Tower Z translation displacement, node 8, m
         25    1.608E+01                                 F               0         Tower X translation displacement, node 9, m
         26   -5.952E+00                                 F               0         Tower Y translation displacement, node 9, m
         27   -6.942E-01                                 F               0         Tower Z translation displacement, node 9, m
         28    1.720E+01                                 F               0         Tower X translation displacement, node 10, m
         29   -6.543E+00                                 F               0         Tower Y translation displacement, node 10, m
         30   -7.591E-01                                 F               0         Tower Z translation displacement, node 10, m
         31    1.832E+01                                 F               0         Tower X translation displacement, node 11, m
         32   -7.135E+00                                 F               0         Tower Y translation displacement, node 11, m
         33   -8.241E-01                                 F               0         Tower Z translation displacement, node 11, m
         34    9.964E-01,  4.775E-03, -8.514E-02         F               0         Tower X orientation angle, node 1, rad
         35   -8.589E-04,  9.989E-01,  4.597E-02         F               0         Tower Y orientation angle, node 1, rad
         36    8.527E-02, -4.573E-02,  9.953E-01         F               0         Tower Z orientation angle, node 1, rad
         37    9.963E-01,  4.831E-03, -8.636E-02         F               0         Tower X orientation angle, node 2, rad
         38   -8.229E-04,  9.989E-01,  4.639E-02         F               0         Tower Y orientation angle, node 2, rad
         39    8.649E-02, -4.614E-02,  9.952E-01         F               0         Tower Z orientation angle, node 2, rad
         40    9.962E-01,  4.880E-03, -8.741E-02         F               0         Tower X orientation angle, node 3, rad
         41   -7.902E-04,  9.989E-01,  4.676E-02         F               0         Tower Y orientation angle, node 3, rad
         42    8.754E-02, -4.651E-02,  9.951E-01         F               0         Tower Z orientation angle, node 3, rad
         43    9.961E-01,  4.921E-03, -8.828E-02         F               0         Tower X orientation angle, node 4, rad
         44   -7.613E-04,  9.989E-01,  4.709E-02         F               0         Tower Y orientation angle, node 4, rad
         45    8.841E-02, -4.684E-02,  9.950E-01         F               0         Tower Z orientation angle, node 4, rad
         46    9.960E-01,  4.953E-03, -8.897E-02         F               0         Tower X orientation angle, node 5, rad
         47   -7.364E-04,  9.989E-01,  4.737E-02         F               0         Tower Y orientation angle, node 5, rad
         48    8.910E-02, -4.712E-02,  9.949E-01         F               0         Tower Z orientation angle, node 5, rad
         49    9.960E-01,  4.979E-03, -8.950E-02         F               0         Tower X orientation angle, node 6, rad
         50   -7.153E-04,  9.989E-01,  4.761E-02         F               0         Tower Y orientation angle, node 6, rad
         51    8.963E-02, -4.735E-02,  9.948E-01         F               0         Tower Z orientation angle, node 6, rad
         52    9.959E-01,  4.997E-03, -8.988E-02         F               0         Tower X orientation angle, node 7, rad
         53   -6.985E-04,  9.989E-01,  4.779E-02         F               0         Tower Y orientation angle, node 7, rad
         54    9.001E-02, -4.754E-02,  9.948E-01         F               0         Tower Z orientation angle, node 7, rad
         55    9.959E-01,  5.009E-03, -9.014E-02         F               0         Tower X orientation angle, node 8, rad
         56   -6.854E-04,  9.988E-01,  4.794E-02         F               0         Tower Y orientation angle, node 8, rad
         57    9.027E-02, -4.768E-02,  9.948E-01         F               0         Tower Z orientation angle, node 8, rad
         58    9.959E-01,  5.017E-03, -9.030E-02         F               0         Tower X orientation angle, node 9, rad
         59   -6.758E-04,  9.988E-01,  4.805E-02         F               0         Tower Y orientation angle, node 9, rad
         60    9.044E-02, -4.779E-02,  9.948E-01         F               0         Tower Z orientation angle, node 9, rad
         61    9.959E-01,  5.022E-03, -9.039E-02         F               0         Tower X orientation angle, node 10, rad
         62   -6.695E-04,  9.988E-01,  4.812E-02         F               0         Tower Y orientation angle, node 10, rad
         63    9.053E-02, -4.786E-02,  9.947E-01         F               0         Tower Z orientation angle, node 10, rad
         64    9.959E-01,  5.024E-03, -9.043E-02         F               0         Tower X orientation angle, node 11, rad
         65   -6.660E-04,  9.988E-01,  4.816E-02         F               0         Tower Y orientation angle, node 11, rad
         66    9.057E-02, -4.790E-02,  9.947E-01         F               0         Tower Z orientation angle, node 11, rad
         67   -5.112E-03                                 F               0         Tower X translation velocity, node 1, m/s
         68    6.928E-03                                 F               0         Tower Y translation velocity, node 1, m/s
         69    3.335E-03                                 F               0         Tower Z translation velocity, node 1, m/s
         70   -5.022E-03                                 F               0         Tower X translation velocity, node 2, m/s
         71    1.067E-02                                 F               0         Tower Y translation velocity, node 2, m/s
         72    3.500E-03                                 F               0         Tower Z translation velocity, node 2, m/s
         73   -4.917E-03                                 F               0         Tower X translation velocity, node 3, m/s
         74    1.446E-02                                 F               0         Tower Y translation velocity, node 3, m/s
         75    3.668E-03                                 F               0         Tower Z translation velocity, node 3, m/s
         76   -4.801E-03                                 F               0         Tower X translation velocity, node 4, m/s
         77    1.829E-02                                 F               0         Tower Y translation velocity, node 4, m/s
         78    3.837E-03                                 F               0         Tower Z translation velocity, node 4, m/s
         79   -4.672E-03                                 F               0         Tower X translation velocity, node 5, m/s
         80    2.214E-02                                 F               0         Tower Y translation velocity, node 5, m/s
         81    4.008E-03                                 F               0         Tower Z translation velocity, node 5, m/s
         82   -4.533E-03                                 F               0         Tower X translation velocity, node 6, m/s
         83    2.602E-02                                 F               0         Tower Y translation velocity, node 6, m/s
         84    4.179E-03                                 F               0         Tower Z translation velocity, node 6, m/s
         85   -4.384E-03                                 F               0         Tower X translation velocity, node 7, m/s
         86    2.992E-02                                 F               0         Tower Y translation velocity, node 7, m/s
         87    4.352E-03                                 F               0         Tower Z translation velocity, node 7, m/s
         88   -4.227E-03                                 F               0         Tower X translation velocity, node 8, m/s
         89    3.383E-02                                 F               0         Tower Y translation velocity, node 8, m/s
         90    4.525E-03                                 F               0         Tower Z translation velocity, node 8, m/s
         91   -4.062E-03                                 F               0         Tower X translation velocity, node 9, m/s
         92    3.775E-02                                 F               0         Tower Y translation velocity, node 9, m/s
         93    4.698E-03                                 F               0         Tower Z translation velocity, node 9, m/s
         94   -3.891E-03                                 F               0         Tower X translation velocity, node 10, m/s
         95    4.169E-02                                 F               0         Tower Y translation velocity, node 10, m/s
         96    4.872E-03                                 F               0         Tower Z translation velocity, node 10, m/s
         97   -3.717E-03                                 F               0         Tower X translation velocity, node 11, m/s
         98    4.562E-02                                 F               0         Tower Y translation velocity, node 11, m/s
         99    5.045E-03                                 F               0         Tower Z translation velocity, node 11, m/s
        100    1.908E+01                                 F               0         Hub X translation displacement, node 1, m
        101   -7.565E+00                                 F               0         Hub Y translation displacement, node 1, m
        102    1.114E-01                                 F               0         Hub Z translation displacement, node 1, m
        103    9.810E-01,  1.000E-02, -1.939E-01         F               0         Hub X orientation angle, node 1, rad
        104    1.882E-01,  1.967E-01,  9.622E-01         F               0         Hub Y orientation angle, node 1, rad
        105    4.776E-02, -9.804E-01,  1.910E-01         F               0         Hub Z orientation angle, node 1, rad
        106    6.937E-01                                 F               0         Hub X rotation velocity, node 1, rad/s
        107    7.089E-03                                 F               0         Hub Y rotation velocity, node 1, rad/s
        108   -1.371E-01                                 F               0         Hub Z rotation velocity, node 1, rad/s
        109    9.750E-01,  4.164E-03, -2.224E-01         F               0         Blade root 1 X orientation angle, node 1, rad
        110    2.172E-01,  1.969E-01,  9.561E-01         F               0         Blade root 1 Y orientation angle, node 1, rad
        111    4.776E-02, -9.804E-01,  1.910E-01         F               0         Blade root 1 Z orientation angle, node 1, rad
        112    9.821E-01,  3.810E-02, -1.845E-01         F               0         Blade root 2 X orientation angle, node 1, rad
        113   -2.362E-02, -9.467E-01, -3.213E-01         F               0         Blade root 2 Y orientation angle, node 1, rad
        114   -1.869E-01,  3.199E-01, -9.288E-01         F               0         Blade root 2 Z orientation angle, node 1, rad
        115    9.846E-01, -1.227E-02, -1.747E-01         F               0         Blade root 3 X orientation angle, node 1, rad
        116   -1.063E-01,  7.507E-01, -6.520E-01         F               0         Blade root 3 Y orientation angle, node 1, rad
        117    1.391E-01,  6.605E-01,  7.378E-01         F               0         Blade root 3 Z orientation angle, node 1, rad
        118    1.876E+01                                 F               0         Blade 1 X translation displacement, node 1, m
        119   -1.300E+01                                 F               0         Blade 1 Y translation displacement, node 1, m
        120   -4.340E+00                                 F               0         Blade 1 Z translation displacement, node 1, m
        121    1.869E+01                                 F               0         Blade 1 X translation displacement, node 2, m
        122   -1.431E+01                                 F               0         Blade 1 Y translation displacement, node 2, m
        123   -5.412E+00                                 F               0         Blade 1 Z translation displacement, node 2, m
        124    1.766E+01                                 F               0         Blade 1 X translation displacement, node 3, m
        125   -3.210E+01                                 F               0         Blade 1 Y translation displacement, node 3, m
        126   -2.000E+01                                 F               0         Blade 1 Z translation displacement, node 3, m
        127    1.744E+01                                 F               0         Blade 1 X translation displacement, node 4, m
        128   -3.589E+01                                 F               0         Blade 1 Y translation displacement, node 4, m
        129   -2.311E+01                                 F               0         Blade 1 Z translation displacement, node 4, m
        130    1.722E+01                                 F               0         Blade 1 X translation displacement, node 5, m
        131   -3.969E+01                                 F               0         Blade 1 Y translation displacement, node 5, m
        132   -2.621E+01                                 F               0         Blade 1 Z translation displacement, node 5, m
        133    1.700E+01                                 F               0         Blade 1 X translation displacement, node 6, m
        134   -4.348E+01                                 F               0         Blade 1 Y translation displacement, node 6, m
        135   -2.932E+01                                 F               0         Blade 1 Z translation displacement, node 6, m
        136    1.678E+01                                 F               0         Blade 1 X translation displacement, node 7, m
        137   -4.727E+01                                 F               0         Blade 1 Y translation displacement, node 7, m
        138   -3.243E+01                                 F               0         Blade 1 Z translation displacement, node 7, m
        139    1.656E+01                                 F               0         Blade 1 X translation displacement, node 8, m
        140   -5.106E+01                                 F               0         Blade 1 Y translation displacement, node 8, m
        141   -3.554E+01                                 F               0         Blade 1 Z translation displacement, node 8, m
        142    1.634E+01                                 F               0         Blade 1 X translation displacement, node 9, m
        143   -5.485E+01                                 F               0         Blade 1 Y translation displacement, node 9, m
        144   -3.864E+01                                 F               0         Blade 1 Z translation displacement, node 9, m
        145    1.612E+01                                 F               0         Blade 1 X translation displacement, node 10, m
        146   -5.865E+01                                 F               0         Blade 1 Y translation displacement, node 10, m
        147   -4.175E+01                                 F               0         Blade 1 Z translation displacement, node 10, m
        148    1.590E+01                                 F               0         Blade 1 X translation displacement, node 11, m
        149   -6.244E+01                                 F               0         Blade 1 Y translation displacement, node 11, m
        150   -4.486E+01                                 F               0         Blade 1 Z translation displacement, node 11, m
        151    1.568E+01                                 F               0         Blade 1 X translation displacement, node 12, m
        152   -6.623E+01                                 F               0         Blade 1 Y translation displacement, node 12, m
        153   -4.797E+01                                 F               0         Blade 1 Z translation displacement, node 12, m
        154    1.546E+01                                 F               0         Blade 1 X translation displacement, node 13, m
        155   -7.002E+01                                 F               0         Blade 1 Y translation displacement, node 13, m
        156   -5.107E+01                                 F               0         Blade 1 Z translation displacement, node 13, m
        157    1.524E+01                                 F               0         Blade 1 X translation displacement, node 14, m
        158   -7.381E+01                                 F               0         Blade 1 Y translation displacement, node 14, m
        159   -5.418E+01                                 F               0         Blade 1 Z translation displacement, node 14, m
        160    1.502E+01                                 F               0         Blade 1 X translation displacement, node 15, m
        161   -7.761E+01                                 F               0         Blade 1 Y translation displacement, node 15, m
        162   -5.729E+01                                 F               0         Blade 1 Z translation displacement, node 15, m
        163    1.480E+01                                 F               0         Blade 1 X translation displacement, node 16, m
        164   -8.140E+01                                 F               0         Blade 1 Y translation displacement, node 16, m
        165   -6.040E+01                                 F               0         Blade 1 Z translation displacement, node 16, m
        166    1.458E+01                                 F               0         Blade 1 X translation displacement, node 17, m
        167   -8.519E+01                                 F               0         Blade 1 Y translation displacement, node 17, m
        168   -6.350E+01                                 F               0         Blade 1 Z translation displacement, node 17, m
        169    1.436E+01                                 F               0         Blade 1 X translation displacement, node 18, m
        170   -8.898E+01                                 F               0         Blade 1 Y translation displacement, node 18, m
        171   -6.661E+01                                 F               0         Blade 1 Z translation displacement, node 18, m
        172    1.414E+01                                 F               0         Blade 1 X translation displacement, node 19, m
        173   -9.277E+01                                 F               0         Blade 1 Y translation displacement, node 19, m
        174   -6.972E+01                                 F               0         Blade 1 Z translation displacement, node 19, m
        175    1.392E+01                                 F               0         Blade 1 X translation displacement, node 20, m
        176   -9.657E+01                                 F               0         Blade 1 Y translation displacement, node 20, m
        177   -7.283E+01                                 F               0         Blade 1 Z translation displacement, node 20, m
        178    1.370E+01                                 F               0         Blade 1 X translation displacement, node 21, m
        179   -1.004E+02                                 F               0         Blade 1 Y translation displacement, node 21, m
        180   -7.593E+01                                 F               0         Blade 1 Z translation displacement, node 21, m
        181    1.348E+01                                 F               0         Blade 1 X translation displacement, node 22, m
        182   -1.042E+02                                 F               0         Blade 1 Y translation displacement, node 22, m
        183   -7.904E+01                                 F               0         Blade 1 Z translation displacement, node 22, m
        184    1.327E+01                                 F               0         Blade 1 X translation displacement, node 23, m
        185   -1.079E+02                                 F               0         Blade 1 Y translation displacement, node 23, m
        186   -8.215E+01                                 F               0         Blade 1 Z translation displacement, node 23, m
        187    1.305E+01                                 F               0         Blade 1 X translation displacement, node 24, m
        188   -1.117E+02                                 F               0         Blade 1 Y translation displacement, node 24, m
        189   -8.526E+01                                 F               0         Blade 1 Z translation displacement, node 24, m
        190    1.283E+01                                 F               0         Blade 1 X translation displacement, node 25, m
        191   -1.155E+02                                 F               0         Blade 1 Y translation displacement, node 25, m
        192   -8.836E+01                                 F               0         Blade 1 Z translation displacement, node 25, m
        193    1.261E+01                                 F               0         Blade 1 X translation displacement, node 26, m
        194   -1.193E+02                                 F               0         Blade 1 Y translation displacement, node 26, m
        195   -9.147E+01                                 F               0         Blade 1 Z translation displacement, node 26, m
        196    1.239E+01                                 F               0         Blade 1 X translation displacement, node 27, m
        197   -1.231E+02                                 F               0         Blade 1 Y translation displacement, node 27, m
        198   -9.458E+01                                 F               0         Blade 1 Z translation displacement, node 27, m
        199    1.220E+01                                 F               0         Blade 1 X translation displacement, node 28, m
        200   -1.263E+02                                 F               0         Blade 1 Y translation displacement, node 28, m
        201   -9.721E+01                                 F               0         Blade 1 Z translation displacement, node 28, m
        202    7.686E-01, -8.607E-02, -6.339E-01         F               0         Blade 1 X orientation angle, node 1, rad
        203    6.379E-01,  1.771E-01,  7.495E-01         F               0         Blade 1 Y orientation angle, node 1, rad
        204    4.776E-02, -9.804E-01,  1.910E-01         F               0         Blade 1 Z orientation angle, node 1, rad
        205    7.686E-01, -8.607E-02, -6.339E-01         F               0         Blade 1 X orientation angle, node 2, rad
        206    6.379E-01,  1.771E-01,  7.495E-01         F               0         Blade 1 Y orientation angle, node 2, rad
        207    4.776E-02, -9.804E-01,  1.910E-01         F               0         Blade 1 Z orientation angle, node 2, rad
        208    8.979E-01, -4.164E-02, -4.382E-01         F               0         Blade 1 X orientation angle, node 3, rad
        209    4.376E-01,  1.925E-01,  8.783E-01         F               0         Blade 1 Y orientation angle, node 3, rad
        210    4.776E-02, -9.804E-01,  1.910E-01         F               0         Blade 1 Z orientation angle, node 3, rad
        211    9.156E-01, -3.348E-02, -4.007E-01         F               0         Blade 1 X orientation angle, node 4, rad
        212    3.993E-01,  1.941E-01,  8.961E-01         F               0         Blade 1 Y orientation angle, node 4, rad
        213    4.776E-02, -9.804E-01,  1.910E-01         F               0         Blade 1 Z orientation angle, node 4, rad
        214    9.283E-01, -2.703E-02, -3.708E-01         F               0         Blade 1 X orientation angle, node 5, rad
        215    3.687E-01,  1.951E-01,  9.089E-01         F               0         Blade 1 Y orientation angle, node 5, rad
        216    4.776E-02, -9.804E-01,  1.910E-01         F               0         Blade 1 Z orientation angle, node 5, rad
        217    9.378E-01, -2.184E-02, -3.465E-01         F               0         Blade 1 X orientation angle, node 6, rad
        218    3.439E-01,  1.957E-01,  9.184E-01         F               0         Blade 1 Y orientation angle, node 6, rad
        219    4.776E-02, -9.804E-01,  1.910E-01         F               0         Blade 1 Z orientation angle, node 6, rad
        220    9.451E-01, -1.757E-02, -3.264E-01         F               0         Blade 1 X orientation angle, node 7, rad
        221    3.234E-01,  1.961E-01,  9.257E-01         F               0         Blade 1 Y orientation angle, node 7, rad
        222    4.776E-02, -9.804E-01,  1.910E-01         F               0         Blade 1 Z orientation angle, node 7, rad
        223    9.508E-01, -1.401E-02, -3.096E-01         F               0         Blade 1 X orientation angle, node 8, rad
        224    3.062E-01,  1.964E-01,  9.315E-01         F               0         Blade 1 Y orientation angle, node 8, rad
        225    4.776E-02, -9.804E-01,  1.910E-01         F               0         Blade 1 Z orientation angle, node 8, rad
        226    9.554E-01, -1.099E-02, -2.952E-01         F               0         Blade 1 X orientation angle, node 9, rad
        227    2.916E-01,  1.966E-01,  9.361E-01         F               0         Blade 1 Y orientation angle, node 9, rad