
Linearized model: Predictions were generated on 12-Jan-2024 at 08:43:17 using OpenFAST, compiled as a 64-bit application using single precision at commit v3.5.1
 linked with  NWTC Subroutine Library; ElastoDyn; InflowWind; AeroDyn; ServoDyn; HydroDyn; MAP++ (<1.20.10>, <Oct-20-2023>)

Description from the FAST input file: CCT-9 Campign 4 model. Input files to be run with OpenFAST 3.5.0. GitHub branch from Lu Wang (https://github.com/luwang00/openfast/tree/dev) compiled on March 7, 2023.

Simulation information:
   Simulation time:                   503.7250 s
   Rotor Speed:                         0.7075 rad/s
   Azimuth:                             6.0525 rad
   Wind Speed:                          8.0000 m/s
   Number of continuous states:         0
   Number of discrete states:           0
   Number of constraint states:         0
   Number of inputs:                 1746
   Number of outputs:                   4
   Jacobians included in this file?    No

Order of inputs:
     Column   Operating Point                     Rotating Frame? Derivative Order Description
   ---------- ---------------                     --------------- ---------------- -----------
          1    7.330E+00                                 F               0         Tower X translation displacement, node 1, m
          2   -1.322E+00                                 F               0         Tower Y translation displacement, node 1, m
          3   -2.009E-01                                 F               0         Tower Z translation displacement, node 1, m
          4    8.390E+00                                 F               0         Tower X translation displacement, node 2, m
          5   -1.896E+00                                 F               0         Tower Y translation displacement, node 2, m
          6   -2.598E-01                                 F               0         Tower Z translation displacement, node 2, m
          7    9.466E+00                                 F               0         Tower X translation displacement, node 3, m
          8   -2.477E+00                                 F               0         Tower Y translation displacement, node 3, m
          9   -3.204E-01                                 F               0         Tower Z translation displacement, node 3, m
         10    1.055E+01                                 F               0         Tower X translation displacement, node 4, m
         11   -3.061E+00                                 F               0         Tower Y translation displacement, node 4, m
         12   -3.823E-01                                 F               0         Tower Z translation displacement, node 4, m
         13    1.165E+01                                 F               0         Tower X translation displacement, node 5, m
         14   -3.649E+00                                 F               0         Tower Y translation displacement, node 5, m
         15   -4.452E-01                                 F               0         Tower Z translation displacement, node 5, m
         16    1.276E+01                                 F               0         Tower X translation displacement, node 6, m
         17   -4.241E+00                                 F               0         Tower Y translation displacement, node 6, m
         18   -5.089E-01                                 F               0         Tower Z translation displacement, node 6, m
         19    1.386E+01                                 F               0         Tower X translation displacement, node 7, m
         20   -4.835E+00                                 F               0         Tower Y translation displacement, node 7, m
         21   -5.732E-01                                 F               0         Tower Z translation displacement, node 7, m
         22    1.498E+01                                 F               0         Tower X translation displacement, node 8, m
         23   -5.431E+00                                 F               0         Tower Y translation displacement, node 8, m
         24   -6.379E-01                                 F               0         Tower Z translation displacement, node 8, m
         25    1.610E+01                                 F               0         Tower X translation displacement, node 9, m
         26   -6.029E+00                                 F               0         Tower Y translation displacement, node 9, m
         27   -7.030E-01                                 F               0         Tower Z translation displacement, node 9, m
         28    1.721E+01                                 F               0         Tower X translation displacement, node 10, m
         29   -6.628E+00                                 F               0         Tower Y translation displacement, node 10, m
         30   -7.683E-01                                 F               0         Tower Z translation displacement, node 10, m
         31    1.833E+01                                 F               0         Tower X translation displacement, node 11, m
         32   -7.227E+00                                 F               0         Tower Y translation displacement, node 11, m
         33   -8.336E-01                                 F               0         Tower Z translation displacement, node 11, m
         34    9.964E-01,  4.689E-03, -8.514E-02         F               0         Tower X orientation angle, node 1, rad
         35   -7.221E-04,  9.989E-01,  4.656E-02         F               0         Tower Y orientation angle, node 1, rad
         36    8.526E-02, -4.633E-02,  9.953E-01         F               0         Tower Z orientation angle, node 1, rad
         37    9.963E-01,  4.746E-03, -8.636E-02         F               0         Tower X orientation angle, node 2, rad
         38   -6.855E-04,  9.989E-01,  4.699E-02         F               0         Tower Y orientation angle, node 2, rad
         39    8.648E-02, -4.675E-02,  9.952E-01         F               0         Tower Z orientation angle, node 2, rad
         40    9.962E-01,  4.796E-03, -8.741E-02         F               0         Tower X orientation angle, node 3, rad
         41   -6.522E-04,  9.989E-01,  4.737E-02         F               0         Tower Y orientation angle, node 3, rad
         42    8.754E-02, -4.713E-02,  9.950E-01         F               0         Tower Z orientation angle, node 3, rad
         43    9.961E-01,  4.837E-03, -8.827E-02         F               0         Tower X orientation angle, node 4, rad
         44   -6.229E-04,  9.989E-01,  4.770E-02         F               0         Tower Y orientation angle, node 4, rad
         45    8.840E-02, -4.746E-02,  9.950E-01         F               0         Tower Z orientation angle, node 4, rad
         46    9.960E-01,  4.870E-03, -8.897E-02         F               0         Tower X orientation angle, node 5, rad
         47   -5.975E-04,  9.988E-01,  4.799E-02         F               0         Tower Y orientation angle, node 5, rad
         48    8.910E-02, -4.774E-02,  9.949E-01         F               0         Tower Z orientation angle, node 5, rad
         49    9.960E-01,  4.895E-03, -8.950E-02         F               0         Tower X orientation angle, node 6, rad
         50   -5.761E-04,  9.988E-01,  4.823E-02         F               0         Tower Y orientation angle, node 6, rad
         51    8.963E-02, -4.798E-02,  9.948E-01         F               0         Tower Z orientation angle, node 6, rad
         52    9.959E-01,  4.914E-03, -8.987E-02         F               0         Tower X orientation angle, node 7, rad
         53   -5.590E-04,  9.988E-01,  4.842E-02         F               0         Tower Y orientation angle, node 7, rad
         54    9.001E-02, -4.817E-02,  9.948E-01         F               0         Tower Z orientation angle, node 7, rad
         55    9.959E-01,  4.927E-03, -9.013E-02         F               0         Tower X orientation angle, node 8, rad
         56   -5.456E-04,  9.988E-01,  4.857E-02         F               0         Tower Y orientation angle, node 8, rad
         57    9.027E-02, -4.832E-02,  9.947E-01         F               0         Tower Z orientation angle, node 8, rad
         58    9.959E-01,  4.935E-03, -9.030E-02         F               0         Tower X orientation angle, node 9, rad
         59   -5.358E-04,  9.988E-01,  4.867E-02         F               0         Tower Y orientation angle, node 9, rad
         60    9.043E-02, -4.843E-02,  9.947E-01         F               0         Tower Z orientation angle, node 9, rad
         61    9.959E-01,  4.939E-03, -9.039E-02         F               0         Tower X orientation angle, node 10, rad
         62   -5.295E-04,  9.988E-01,  4.875E-02         F               0         Tower Y orientation angle, node 10, rad
         63    9.052E-02, -4.850E-02,  9.947E-01         F               0         Tower Z orientation angle, node 10, rad
         64    9.959E-01,  4.941E-03, -9.043E-02         F               0         Tower X orientation angle, node 11, rad
         65   -5.259E-04,  9.988E-01,  4.878E-02         F               0         Tower Y orientation angle, node 11, rad
         66    9.056E-02, -4.854E-02,  9.947E-01         F               0         Tower Z orientation angle, node 11, rad
         67   -4.983E-03                                 F               0         Tower X translation velocity, node 1, m/s
         68    6.096E-03                                 F               0         Tower Y translation velocity, node 1, m/s
         69    1.908E-03                                 F               0         Tower Z translation velocity, node 1, m/s
         70   -5.008E-03                                 F               0         Tower X translation velocity, node 2, m/s
         71    8.997E-03                                 F               0         Tower Y translation velocity, node 2, m/s
         72    2.046E-03                                 F               0         Tower Z translation velocity, node 2, m/s
         73   -5.033E-03                                 F               0         Tower X translation velocity, node 3, m/s
         74    1.194E-02                                 F               0         Tower Y translation velocity, node 3, m/s
         75    2.187E-03                                 F               0         Tower Z translation velocity, node 3, m/s
         76   -5.060E-03                                 F               0         Tower X translation velocity, node 4, m/s
         77    1.491E-02                                 F               0         Tower Y translation velocity, node 4, m/s
         78    2.330E-03                                 F               0         Tower Z translation velocity, node 4, m/s
         79   -5.086E-03                                 F               0         Tower X translation velocity, node 5, m/s
         80    1.791E-02                                 F               0         Tower Y translation velocity, node 5, m/s
         81    2.476E-03                                 F               0         Tower Z translation velocity, node 5, m/s
         82   -5.112E-03                                 F               0         Tower X translation velocity, node 6, m/s
         83    2.094E-02                                 F               0         Tower Y translation velocity, node 6, m/s
         84    2.624E-03                                 F               0         Tower Z translation velocity, node 6, m/s
         85   -5.137E-03                                 F               0         Tower X translation velocity, node 7, m/s
         86    2.398E-02                                 F               0         Tower Y translation velocity, node 7, m/s
         87    2.773E-03                                 F               0         Tower Z translation velocity, node 7, m/s
         88   -5.162E-03                                 F               0         Tower X translation velocity, node 8, m/s
         89    2.703E-02                                 F               0         Tower Y translation velocity, node 8, m/s
         90    2.924E-03                                 F               0         Tower Z translation velocity, node 8, m/s
         91   -5.185E-03                                 F               0         Tower X translation velocity, node 9, m/s
         92    3.010E-02                                 F               0         Tower Y translation velocity, node 9, m/s
         93    3.075E-03                                 F               0         Tower Z translation velocity, node 9, m/s
         94   -5.207E-03                                 F               0         Tower X translation velocity, node 10, m/s
         95    3.318E-02                                 F               0         Tower Y translation velocity, node 10, m/s
         96    3.227E-03                                 F               0         Tower Z translation velocity, node 10, m/s
         97   -5.228E-03                                 F               0         Tower X translation velocity, node 11, m/s
         98    3.626E-02                                 F               0         Tower Y translation velocity, node 11, m/s
         99    3.379E-03                                 F               0         Tower Z translation velocity, node 11, m/s
        100    1.909E+01                                 F               0         Hub X translation displacement, node 1, m
        101   -7.662E+00                                 F               0         Hub Y translation displacement, node 1, m
        102    1.015E-01                                 F               0         Hub Z translation displacement, node 1, m
        103    9.810E-01,  9.988E-03, -1.939E-01         F               0         Hub X orientation angle, node 1, rad
        104   -4.491E-02,  9.833E-01, -1.765E-01         F               0         Hub Y orientation angle, node 1, rad
        105    1.889E-01,  1.819E-01,  9.650E-01         F               0         Hub Z orientation angle, node 1, rad
        106    6.938E-01                                 F               0         Hub X rotation velocity, node 1, rad/s
        107    7.062E-03                                 F               0         Hub Y rotation velocity, node 1, rad/s
        108   -1.371E-01                                 F               0         Hub Z rotation velocity, node 1, rad/s
        109    9.819E-01, -1.919E-02, -1.886E-01         F               0         Blade root 1 X orientation angle, node 1, rad
        110   -1.579E-02,  9.831E-01, -1.822E-01         F               0         Blade root 1 Y orientation angle, node 1, rad
        111    1.889E-01,  1.819E-01,  9.650E-01         F               0         Blade root 1 Z orientation angle, node 1, rad
        112    9.750E-01,  1.990E-02, -2.212E-01         F               0         Blade root 2 X orientation angle, node 1, rad
        113    2.151E-01, -3.337E-01,  9.178E-01         F               0         Blade root 2 Y orientation angle, node 1, rad
        114   -5.556E-02, -9.425E-01, -3.296E-01         F               0         Blade root 2 Z orientation angle, node 1, rad
        115    9.847E-01,  2.924E-02, -1.717E-01         F               0         Blade root 3 X orientation angle, node 1, rad
        116   -1.120E-01, -6.486E-01, -7.529E-01         F               0         Blade root 3 Y orientation angle, node 1, rad
        117   -1.333E-01,  7.606E-01, -6.354E-01         F               0         Blade root 3 Z orientation angle, node 1, rad
        118    1.955E+01                                 F               0         Blade 1 X translation displacement, node 1, m
        119   -6.654E+00                                 F               0         Blade 1 Y translation displacement, node 1, m
        120   -6.202E-02                                 F               0         Blade 1 Z translation displacement, node 1, m
        121    1.967E+01                                 F               0         Blade 1 X translation displacement, node 2, m
        122   -6.411E+00                                 F               0         Blade 1 Y translation displacement, node 2, m
        123   -1.014E-01                                 F               0         Blade 1 Z translation displacement, node 2, m
        124    2.120E+01                                 F               0         Blade 1 X translation displacement, node 3, m
        125   -3.109E+00                                 F               0         Blade 1 Y translation displacement, node 3, m
        126   -6.373E-01                                 F               0         Blade 1 Z translation displacement, node 3, m
        127    2.153E+01                                 F               0         Blade 1 X translation displacement, node 4, m
        128   -2.406E+00                                 F               0         Blade 1 Y translation displacement, node 4, m
        129   -7.514E-01                                 F               0         Blade 1 Z translation displacement, node 4, m
        130    2.185E+01                                 F               0         Blade 1 X translation displacement, node 5, m
        131   -1.702E+00                                 F               0         Blade 1 Y translation displacement, node 5, m
        132   -8.656E-01                                 F               0         Blade 1 Z translation displacement, node 5, m
        133    2.218E+01                                 F               0         Blade 1 X translation displacement, node 6, m
        134   -9.988E-01                                 F               0         Blade 1 Y translation displacement, node 6, m
        135   -9.798E-01                                 F               0         Blade 1 Z translation displacement, node 6, m
        136    2.250E+01                                 F               0         Blade 1 X translation displacement, node 7, m
        137   -2.953E-01                                 F               0         Blade 1 Y translation displacement, node 7, m
        138   -1.094E+00                                 F               0         Blade 1 Z translation displacement, node 7, m
        139    2.283E+01                                 F               0         Blade 1 X translation displacement, node 8, m
        140    4.083E-01                                 F               0         Blade 1 Y translation displacement, node 8, m
        141   -1.208E+00                                 F               0         Blade 1 Z translation displacement, node 8, m
        142    2.316E+01                                 F               0         Blade 1 X translation displacement, node 9, m
        143    1.112E+00                                 F               0         Blade 1 Y translation displacement, node 9, m
        144   -1.322E+00                                 F               0         Blade 1 Z translation displacement, node 9, m
        145    2.348E+01                                 F               0         Blade 1 X translation displacement, node 10, m
        146    1.815E+00                                 F               0         Blade 1 Y translation displacement, node 10, m
        147   -1.436E+00                                 F               0         Blade 1 Z translation displacement, node 10, m
        148    2.381E+01                                 F               0         Blade 1 X translation displacement, node 11, m
        149    2.519E+00                                 F               0         Blade 1 Y translation displacement, node 11, m
        150   -1.551E+00                                 F               0         Blade 1 Z translation displacement, node 11, m
        151    2.414E+01                                 F               0         Blade 1 X translation displacement, node 12, m
        152    3.222E+00                                 F               0         Blade 1 Y translation displacement, node 12, m
        153   -1.665E+00                                 F               0         Blade 1 Z translation displacement, node 12, m
        154    2.446E+01                                 F               0         Blade 1 X translation displacement, node 13, m
        155    3.926E+00                                 F               0         Blade 1 Y translation displacement, node 13, m
        156   -1.779E+00                                 F               0         Blade 1 Z translation displacement, node 13, m
        157    2.479E+01                                 F               0         Blade 1 X translation displacement, node 14, m
        158    4.629E+00                                 F               0         Blade 1 Y translation displacement, node 14, m
        159   -1.893E+00                                 F               0         Blade 1 Z translation displacement, node 14, m
        160    2.512E+01                                 F               0         Blade 1 X translation displacement, node 15, m
        161    5.333E+00                                 F               0         Blade 1 Y translation displacement, node 15, m
        162   -2.007E+00                                 F               0         Blade 1 Z translation displacement, node 15, m
        163    2.544E+01                                 F               0         Blade 1 X translation displacement, node 16, m
        164    6.036E+00                                 F               0         Blade 1 Y translation displacement, node 16, m
        165   -2.121E+00                                 F               0         Blade 1 Z translation displacement, node 16, m
        166    2.577E+01                                 F               0         Blade 1 X translation displacement, node 17, m
        167    6.740E+00                                 F               0         Blade 1 Y translation displacement, node 17, m
        168   -2.236E+00                                 F               0         Blade 1 Z translation displacement, node 17, m
        169    2.609E+01                                 F               0         Blade 1 X translation displacement, node 18, m
        170    7.443E+00                                 F               0         Blade 1 Y translation displacement, node 18, m
        171   -2.350E+00                                 F               0         Blade 1 Z translation displacement, node 18, m
        172    2.642E+01                                 F               0         Blade 1 X translation displacement, node 19, m
        173    8.147E+00                                 F               0         Blade 1 Y translation displacement, node 19, m
        174   -2.464E+00                                 F               0         Blade 1 Z translation displacement, node 19, m
        175    2.675E+01                                 F               0         Blade 1 X translation displacement, node 20, m
        176    8.850E+00                                 F               0         Blade 1 Y translation displacement, node 20, m
        177   -2.578E+00                                 F               0         Blade 1 Z translation displacement, node 20, m
        178    2.707E+01                                 F               0         Blade 1 X translation displacement, node 21, m
        179    9.554E+00                                 F               0         Blade 1 Y translation displacement, node 21, m
        180   -2.692E+00                                 F               0         Blade 1 Z translation displacement, node 21, m
        181    2.740E+01                                 F               0         Blade 1 X translation displacement, node 22, m
        182    1.026E+01                                 F               0         Blade 1 Y translation displacement, node 22, m
        183   -2.806E+00                                 F               0         Blade 1 Z translation displacement, node 22, m
        184    2.773E+01                                 F               0         Blade 1 X translation displacement, node 23, m
        185    1.096E+01                                 F               0         Blade 1 Y translation displacement, node 23, m
        186   -2.921E+00                                 F               0         Blade 1 Z translation displacement, node 23, m
        187    2.805E+01                                 F               0         Blade 1 X translation displacement, node 24, m
        188    1.166E+01                                 F               0         Blade 1 Y translation displacement, node 24, m
        189   -3.035E+00                                 F               0         Blade 1 Z translation displacement, node 24, m
        190    2.838E+01                                 F               0         Blade 1 X translation displacement, node 25, m
        191    1.237E+01                                 F               0         Blade 1 Y translation displacement, node 25, m
        192   -3.149E+00                                 F               0         Blade 1 Z translation displacement, node 25, m
        193    2.870E+01                                 F               0         Blade 1 X translation displacement, node 26, m
        194    1.307E+01                                 F               0         Blade 1 Y translation displacement, node 26, m
        195   -3.263E+00                                 F               0         Blade 1 Z translation displacement, node 26, m
        196    2.903E+01                                 F               0         Blade 1 X translation displacement, node 27, m
        197    1.377E+01                                 F               0         Blade 1 Y translation displacement, node 27, m
        198   -3.377E+00                                 F               0         Blade 1 Z translation displacement, node 27, m
        199    2.931E+01                                 F               0         Blade 1 X translation displacement, node 28, m
        200    1.437E+01                                 F               0         Blade 1 Y translation displacement, node 28, m
        201   -3.474E+00                                 F               0         Blade 1 Z translation displacement, node 28, m
        202    8.810E-01, -4.654E-01, -8.475E-02         F               0         Blade 1 X orientation angle, node 1, rad
        203    4.337E-01,  8.662E-01, -2.482E-01         F               0         Blade 1 Y orientation angle, node 1, rad
        204    1.889E-01,  1.819E-01,  9.650E-01         F               0         Blade 1 Z orientation angle, node 1, rad
        205    8.810E-01, -4.654E-01, -8.475E-02         F               0         Blade 1 X orientation angle, node 2, rad
        206    4.337E-01,  8.662E-01, -2.482E-01         F               0         Blade 1 Y orientation angle, node 2, rad
        207    1.889E-01,  1.819E-01,  9.650E-01         F               0         Blade 1 Z orientation angle, node 2, rad
        208    9.587E-01, -2.468E-01, -1.411E-01         F               0         Blade 1 X orientation angle, node 3, rad
        209    2.125E-01,  9.518E-01, -2.210E-01         F               0         Blade 1 Y orientation angle, node 3, rad
        210    1.889E-01,  1.819E-01,  9.650E-01         F               0         Blade 1 Z orientation angle, node 3, rad
        211    9.668E-01, -2.064E-01, -1.504E-01         F               0         Blade 1 X orientation angle, node 4, rad
        212    1.719E-01,  9.614E-01, -2.149E-01         F               0         Blade 1 Y orientation angle, node 4, rad
        213    1.889E-01,  1.819E-01,  9.650E-01         F               0         Blade 1 Z orientation angle, node 4, rad
        214    9.720E-01, -1.744E-01, -1.574E-01         F               0         Blade 1 X orientation angle, node 5, rad
        215    1.397E-01,  9.677E-01, -2.098E-01         F               0         Blade 1 Y orientation angle, node 5, rad
        216    1.889E-01,  1.819E-01,  9.650E-01         F               0         Blade 1 Z orientation angle, node 5, rad
        217    9.754E-01, -1.487E-01, -1.629E-01         F               0         Blade 1 X orientation angle, node 6, rad
        218    1.139E-01,  9.720E-01, -2.055E-01         F               0         Blade 1 Y orientation angle, node 6, rad
        219    1.889E-01,  1.819E-01,  9.650E-01         F               0         Blade 1 Z orientation angle, node 6, rad
        220    9.776E-01, -1.275E-01, -1.673E-01         F               0         Blade 1 X orientation angle, node 7, rad
        221    9.256E-02,  9.750E-01, -2.019E-01         F               0         Blade 1 Y orientation angle, node 7, rad
        222    1.889E-01,  1.819E-01,  9.650E-01         F               0         Blade 1 Z orientation angle, node 7, rad
        223    9.791E-01, -1.097E-01, -1.710E-01         F               0         Blade 1 X orientation angle, node 8, rad
        224    7.480E-02,  9.772E-01, -1.988E-01         F               0         Blade 1 Y orientation angle, node 8, rad
        225    1.889E-01,  1.819E-01,  9.650E-01         F               0         Blade 1 Z orientation angle, node 8, rad
        226    9.802E-01, -9.473E-02, -1.740E-01         F               0         Blade 1 X orientation angle, node 9, rad
        227    5.976E-02,  9.787E-01, -1.962E-01         F               0         Blade 1 Y orientation angle, node 9, rad