
Linearized model: Predictions were generated on 12-Jan-2024 at 08:43:17 using OpenFAST, compiled as a 64-bit application using single precision at commit v3.5.1
 linked with  NWTC Subroutine Library; ElastoDyn; InflowWind; AeroDyn; ServoDyn; HydroDyn; MAP++ (<1.20.10>, <Oct-20-2023>)

Description from the FAST input file: CCT-9 Campign 4 model. Input files to be run with OpenFAST 3.5.0. GitHub branch from Lu Wang (https://github.com/luwang00/openfast/tree/dev) compiled on March 7, 2023.

Simulation information:
   Simulation time:                   506.9250 s
   Rotor Speed:                         0.7076 rad/s
   Azimuth:                             2.0332 rad
   Wind Speed:                          8.0000 m/s
   Number of continuous states:        22
   Number of discrete states:           0
   Number of constraint states:         0
   Number of inputs:                 1890
   Number of outputs:                  38
   Jacobians included in this file?    No

Order of continuous states:
   Row/Column Operating Point                     Rotating Frame? Derivative Order Description
   ---------- ---------------                     --------------- ---------------- -----------
          1    5.750E+00                                 F               2         Platform horizontal surge translation DOF (internal DOF index = DOF_Sg), m
          2   -4.672E-01                                 F               2         Platform horizontal sway translation DOF (internal DOF index = DOF_Sw), m
          3   -1.057E-01                                 F               2         Platform vertical heave translation DOF (internal DOF index = DOF_Hv), m
          4    4.577E-02                                 F               2         Platform roll tilt rotation DOF (internal DOF index = DOF_R), rad
          5    8.562E-02                                 F               2         Platform pitch tilt rotation DOF (internal DOF index = DOF_P), rad
          6    2.877E-03                                 F               2         Platform yaw rotation DOF (internal DOF index = DOF_Y), rad
          7    4.678E-01                                 F               2         1st tower fore-aft bending mode DOF (internal DOF index = DOF_TFA1), m
          8    1.788E-01                                 F               2         1st tower side-to-side bending mode DOF (internal DOF index = DOF_TSS1), m
          9    1.460E-03                                 F               2         2nd tower fore-aft bending mode DOF (internal DOF index = DOF_TFA2), m
         10    7.806E-05                                 F               2         2nd tower side-to-side bending mode DOF (internal DOF index = DOF_TSS2), m
         11    4.624E-01                                 F               2         Variable speed generator DOF (internal DOF index = DOF_GeAz), rad
         12   -5.234E-03                                 F               2         First time derivative of Platform horizontal surge translation DOF (internal DOF index = DOF_Sg), m/s
         13    8.806E-04                                 F               2         First time derivative of Platform horizontal sway translation DOF (internal DOF index = DOF_Sw), m/s
         14    3.288E-03                                 F               2         First time derivative of Platform vertical heave translation DOF (internal DOF index = DOF_Hv), m/s
         15   -2.923E-04                                 F               2         First time derivative of Platform roll tilt rotation DOF (internal DOF index = DOF_R), rad/s
         16    1.387E-05                                 F               2         First time derivative of Platform pitch tilt rotation DOF (internal DOF index = DOF_P), rad/s
         17    4.593E-05                                 F               2         First time derivative of Platform yaw rotation DOF (internal DOF index = DOF_Y), rad/s
         18   -4.994E-04                                 F               2         First time derivative of 1st tower fore-aft bending mode DOF (internal DOF index = DOF_TFA1), m/s
         19   -1.504E-03                                 F               2         First time derivative of 1st tower side-to-side bending mode DOF (internal DOF index = DOF_TSS1), m/s
         20    3.262E-06                                 F               2         First time derivative of 2nd tower fore-aft bending mode DOF (internal DOF index = DOF_TFA2), m/s
         21   -1.123E-06                                 F               2         First time derivative of 2nd tower side-to-side bending mode DOF (internal DOF index = DOF_TSS2), m/s
         22    7.076E-01                                 F               2         First time derivative of Variable speed generator DOF (internal DOF index = DOF_GeAz), rad/s

Order of continuous state derivatives:
   Row/Column Operating Point                     Rotating Frame? Derivative Order Description
   ---------- ---------------                     --------------- ---------------- -----------
          1   -5.234E-03                                 F               2         First time derivative of Platform horizontal surge translation DOF (internal DOF index = DOF_Sg), m/s
          2    8.806E-04                                 F               2         First time derivative of Platform horizontal sway translation DOF (internal DOF index = DOF_Sw), m/s
          3    3.288E-03                                 F               2         First time derivative of Platform vertical heave translation DOF (internal DOF index = DOF_Hv), m/s
          4   -2.923E-04                                 F               2         First time derivative of Platform roll tilt rotation DOF (internal DOF index = DOF_R), rad/s
          5    1.387E-05                                 F               2         First time derivative of Platform pitch tilt rotation DOF (internal DOF index = DOF_P), rad/s
          6    4.593E-05                                 F               2         First time derivative of Platform yaw rotation DOF (internal DOF index = DOF_Y), rad/s
          7   -4.994E-04                                 F               2         First time derivative of 1st tower fore-aft bending mode DOF (internal DOF index = DOF_TFA1), m/s
          8   -1.504E-03                                 F               2         First time derivative of 1st tower side-to-side bending mode DOF (internal DOF index = DOF_TSS1), m/s
          9    3.262E-06                                 F               2         First time derivative of 2nd tower fore-aft bending mode DOF (internal DOF index = DOF_TFA2), m/s
         10   -1.123E-06                                 F               2         First time derivative of 2nd tower side-to-side bending mode DOF (internal DOF index = DOF_TSS2), m/s
         11    7.076E-01                                 F               2         First time derivative of Variable speed generator DOF (internal DOF index = DOF_GeAz), rad/s
         12   -6.775E-07                                 F               2         First time derivative of First time derivative of Platform horizontal surge translation DOF (internal DOF index = DOF_Sg), m/s/s
         13   -6.190E-04                                 F               2         First time derivative of First time derivative of Platform horizontal sway translation DOF (internal DOF index = DOF_Sw), m/s/s
         14    6.358E-06                                 F               2         First time derivative of First time derivative of Platform vertical heave translation DOF (internal DOF index = DOF_Hv), m/s/s
         15    1.916E-05                                 F               2         First time derivative of First time derivative of Platform roll tilt rotation DOF (internal DOF index = DOF_R), rad/s/s
         16    7.463E-06                                 F               2         First time derivative of First time derivative of Platform pitch tilt rotation DOF (internal DOF index = DOF_P), rad/s/s
         17   -2.381E-06                                 F               2         First time derivative of First time derivative of Platform yaw rotation DOF (internal DOF index = DOF_Y), rad/s/s
         18   -9.228E-04                                 F               2         First time derivative of First time derivative of 1st tower fore-aft bending mode DOF (internal DOF index = DOF_TFA1), m/s/s
         19   -3.226E-04                                 F               2         First time derivative of First time derivative of 1st tower side-to-side bending mode DOF (internal DOF index = DOF_TSS1), m/s/s
         20    2.087E-06                                 F               2         First time derivative of First time derivative of 2nd tower fore-aft bending mode DOF (internal DOF index = DOF_TFA2), m/s/s
         21    1.952E-07                                 F               2         First time derivative of First time derivative of 2nd tower side-to-side bending mode DOF (internal DOF index = DOF_TSS2), m/s/s
         22    1.561E-04                                 F               2         First time derivative of First time derivative of Variable speed generator DOF (internal DOF index = DOF_GeAz), rad/s/s

Order of inputs:
     Column   Operating Point                     Rotating Frame? Derivative Order Description
   ---------- ---------------                     --------------- ---------------- -----------
          1    6.370E+01                                 F               0         Blade 1 X force, node 1, N
          2   -3.866E+01                                 F               0         Blade 1 Y force, node 1, N
          3    5.891E+01                                 F               0         Blade 1 Z force, node 1, N
          4    2.323E+02                                 F               0         Blade 1 X force, node 2, N
          5   -6.594E+01                                 F               0         Blade 1 Y force, node 2, N
          6    7.833E+01                                 F               0         Blade 1 Z force, node 2, N
          7    2.787E+02                                 F               0         Blade 1 X force, node 3, N
          8   -4.474E+01                                 F               0         Blade 1 Y force, node 3, N
          9    3.146E+01                                 F               0         Blade 1 Z force, node 3, N
         10    3.502E+02                                 F               0         Blade 1 X force, node 4, N
         11   -3.214E+01                                 F               0         Blade 1 Y force, node 4, N
         12   -4.269E+00                                 F               0         Blade 1 Z force, node 4, N
         13    4.218E+02                                 F               0         Blade 1 X force, node 5, N
         14   -1.955E+01                                 F               0         Blade 1 Y force, node 5, N
         15   -4.000E+01                                 F               0         Blade 1 Z force, node 5, N
         16    4.933E+02                                 F               0         Blade 1 X force, node 6, N
         17   -6.957E+00                                 F               0         Blade 1 Y force, node 6, N
         18   -7.572E+01                                 F               0         Blade 1 Z force, node 6, N
         19    5.649E+02                                 F               0         Blade 1 X force, node 7, N
         20    5.637E+00                                 F               0         Blade 1 Y force, node 7, N
         21   -1.114E+02                                 F               0         Blade 1 Z force, node 7, N
         22    6.364E+02                                 F               0         Blade 1 X force, node 8, N
         23    1.823E+01                                 F               0         Blade 1 Y force, node 8, N
         24   -1.472E+02                                 F               0         Blade 1 Z force, node 8, N
         25    7.080E+02                                 F               0         Blade 1 X force, node 9, N
         26    3.083E+01                                 F               0         Blade 1 Y force, node 9, N
         27   -1.829E+02                                 F               0         Blade 1 Z force, node 9, N
         28    7.795E+02                                 F               0         Blade 1 X force, node 10, N
         29    4.342E+01                                 F               0         Blade 1 Y force, node 10, N
         30   -2.186E+02                                 F               0         Blade 1 Z force, node 10, N
         31    8.511E+02                                 F               0         Blade 1 X force, node 11, N
         32    5.601E+01                                 F               0         Blade 1 Y force, node 11, N
         33   -2.544E+02                                 F               0         Blade 1 Z force, node 11, N
         34    9.226E+02                                 F               0         Blade 1 X force, node 12, N
         35    6.861E+01                                 F               0         Blade 1 Y force, node 12, N
         36   -2.901E+02                                 F               0         Blade 1 Z force, node 12, N
         37    9.942E+02                                 F               0         Blade 1 X force, node 13, N
         38    8.120E+01                                 F               0         Blade 1 Y force, node 13, N
         39   -3.258E+02                                 F               0         Blade 1 Z force, node 13, N
         40    1.066E+03                                 F               0         Blade 1 X force, node 14, N
         41    9.380E+01                                 F               0         Blade 1 Y force, node 14, N
         42   -3.615E+02                                 F               0         Blade 1 Z force, node 14, N
         43    1.137E+03                                 F               0         Blade 1 X force, node 15, N
         44    1.064E+02                                 F               0         Blade 1 Y force, node 15, N
         45   -3.973E+02                                 F               0         Blade 1 Z force, node 15, N
         46    1.209E+03                                 F               0         Blade 1 X force, node 16, N
         47    1.190E+02                                 F               0         Blade 1 Y force, node 16, N
         48   -4.330E+02                                 F               0         Blade 1 Z force, node 16, N
         49    1.487E+03                                 F               0         Blade 1 X force, node 17, N
         50    1.521E+02                                 F               0         Blade 1 Y force, node 17, N
         51   -5.430E+02                                 F               0         Blade 1 Z force, node 17, N
         52    1.149E+03                                 F               0         Blade 1 X force, node 18, N
         53    1.145E+02                                 F               0         Blade 1 Y force, node 18, N
         54   -4.140E+02                                 F               0         Blade 1 Z force, node 18, N
         55    1.431E+03                                 F               0         Blade 1 X force, node 19, N
         56    1.360E+02                                 F               0         Blade 1 Y force, node 19, N
         57   -5.038E+02                                 F               0         Blade 1 Z force, node 19, N
         58    1.237E+03                                 F               0         Blade 1 X force, node 20, N
         59    1.125E+02                                 F               0         Blade 1 Y force, node 20, N
         60   -4.261E+02                                 F               0         Blade 1 Z force, node 20, N
         61    1.853E+03                                 F               0         Blade 1 X force, node 21, N
         62    1.601E+02                                 F               0         Blade 1 Y force, node 21, N
         63   -6.233E+02                                 F               0         Blade 1 Z force, node 21, N
         64    1.659E+03                                 F               0         Blade 1 X force, node 22, N
         65    1.359E+02                                 F               0         Blade 1 Y force, node 22, N
         66   -5.443E+02                                 F               0         Blade 1 Z force, node 22, N
         67    1.724E+03                                 F               0         Blade 1 X force, node 23, N
         68    1.347E+02                                 F               0         Blade 1 Y force, node 23, N
         69   -5.538E+02                                 F               0         Blade 1 Z force, node 23, N
         70    1.820E+03                                 F               0         Blade 1 X force, node 24, N
         71    1.357E+02                                 F               0         Blade 1 Y force, node 24, N
         72   -5.729E+02                                 F               0         Blade 1 Z force, node 24, N
         73    1.885E+03                                 F               0         Blade 1 X force, node 25, N
         74    1.340E+02                                 F               0         Blade 1 Y force, node 25, N
         75   -5.813E+02                                 F               0         Blade 1 Z force, node 25, N
         76    1.959E+03                                 F               0         Blade 1 X force, node 26, N
         77    1.330E+02                                 F               0         Blade 1 Y force, node 26, N
         78   -5.929E+02                                 F               0         Blade 1 Z force, node 26, N
         79    2.370E+03                                 F               0         Blade 1 X force, node 27, N
         80    1.533E+02                                 F               0         Blade 1 Y force, node 27, N
         81   -7.035E+02                                 F               0         Blade 1 Z force, node 27, N
         82    1.773E+03                                 F               0         Blade 1 X force, node 28, N
         83    1.093E+02                                 F               0         Blade 1 Y force, node 28, N
         84   -5.164E+02                                 F               0         Blade 1 Z force, node 28, N
         85    2.183E+03                                 F               0         Blade 1 X force, node 29, N
         86    1.294E+02                                 F               0         Blade 1 Y force, node 29, N
         87   -6.265E+02                                 F               0         Blade 1 Z force, node 29, N
         88    1.870E+03                                 F               0         Blade 1 X force, node 30, N
         89    1.065E+02                                 F               0         Blade 1 Y force, node 30, N
         90   -5.287E+02                                 F               0         Blade 1 Z force, node 30, N
         91    2.721E+03                                 F               0         Blade 1 X force, node 31, N
         92    1.481E+02                                 F               0         Blade 1 Y force, node 31, N
         93   -7.568E+02                                 F               0         Blade 1 Z force, node 31, N
         94    2.406E+03                                 F               0         Blade 1 X force, node 32, N
         95    1.250E+02                                 F               0         Blade 1 Y force, node 32, N
         96   -6.584E+02                                 F               0         Blade 1 Z force, node 32, N
         97    2.480E+03                                 F               0         Blade 1 X force, node 33, N
         98    1.233E+02                                 F               0         Blade 1 Y force, node 33, N
         99   -6.686E+02                                 F               0         Blade 1 Z force, node 33, N
        100    2.554E+03                                 F               0         Blade 1 X force, node 34, N
        101    1.217E+02                                 F               0         Blade 1 Y force, node 34, N
        102   -6.789E+02                                 F               0         Blade 1 Z force, node 34, N
        103    2.628E+03                                 F               0         Blade 1 X force, node 35, N
        104    1.199E+02                                 F               0         Blade 1 Y force, node 35, N
        105   -6.889E+02                                 F               0         Blade 1 Z force, node 35, N
        106    2.701E+03                                 F               0         Blade 1 X force, node 36, N
        107    1.181E+02                                 F               0         Blade 1 Y force, node 36, N
        108   -6.987E+02                                 F               0         Blade 1 Z force, node 36, N
        109    3.248E+03                                 F               0         Blade 1 X force, node 37, N
        110    1.357E+02                                 F               0         Blade 1 Y force, node 37, N
        111   -8.286E+02                                 F               0         Blade 1 Z force, node 37, N
        112    2.376E+03                                 F               0         Blade 1 X force, node 38, N
        113    9.495E+01                                 F               0         Blade 1 Y force, node 38, N
        114   -5.984E+02                                 F               0         Blade 1 Z force, node 38, N
        115    2.923E+03                                 F               0         Blade 1 X force, node 39, N
        116    1.125E+02                                 F               0         Blade 1 Y force, node 39, N
        117   -7.282E+02                                 F               0         Blade 1 Z force, node 39, N
        118    2.501E+03                                 F               0         Blade 1 X force, node 40, N
        119    9.268E+01                                 F               0         Blade 1 Y force, node 40, N
        120   -6.166E+02                                 F               0         Blade 1 Z force, node 40, N
        121    3.566E+03                                 F               0         Blade 1 X force, node 41, N
        122    1.264E+02                                 F               0         Blade 1 Y force, node 41, N
        123   -8.688E+02                                 F               0         Blade 1 Z force, node 41, N
        124    3.143E+03                                 F               0         Blade 1 X force, node 42, N
        125    1.064E+02                                 F               0         Blade 1 Y force, node 42, N
        126   -7.566E+02                                 F               0         Blade 1 Z force, node 42, N
        127    3.215E+03                                 F               0         Blade 1 X force, node 43, N
        128    1.043E+02                                 F               0         Blade 1 Y force, node 43, N
        129   -7.657E+02                                 F               0         Blade 1 Z force, node 43, N
        130    3.305E+03                                 F               0         Blade 1 X force, node 44, N
        131    1.027E+02                                 F               0         Blade 1 Y force, node 44, N
        132   -7.789E+02                                 F               0         Blade 1 Z force, node 44, N
        133    3.343E+03                                 F               0         Blade 1 X force, node 45, N
        134    9.942E+01                                 F               0         Blade 1 Y force, node 45, N
        135   -7.797E+02                                 F               0         Blade 1 Z force, node 45, N
        136    3.433E+03                                 F               0         Blade 1 X force, node 46, N
        137    9.777E+01                                 F               0         Blade 1 Y force, node 46, N
        138   -7.929E+02                                 F               0         Blade 1 Z force, node 46, N
        139    4.121E+03                                 F               0         Blade 1 X force, node 47, N
        140    1.120E+02                                 F               0         Blade 1 Y force, node 47, N
        141   -9.421E+02                                 F               0         Blade 1 Z force, node 47, N
        142    2.962E+03                                 F               0         Blade 1 X force, node 48, N
        143    7.687E+01                                 F               0         Blade 1 Y force, node 48, N
        144   -6.705E+02                                 F               0         Blade 1 Z force, node 48, N
        145    3.650E+03                                 F               0         Blade 1 X force, node 49, N
        146    9.104E+01                                 F               0         Blade 1 Y force, node 49, N
        147   -8.194E+02                                 F               0         Blade 1 Z force, node 49, N
        148    3.129E+03                                 F               0         Blade 1 X force, node 50, N
        149    7.496E+01                                 F               0         Blade 1 Y force, node 50, N
        150   -6.969E+02                                 F               0         Blade 1 Z force, node 50, N
        151    4.386E+03                                 F               0         Blade 1 X force, node 51, N
        152    1.002E+02                                 F               0         Blade 1 Y force, node 51, N
        153   -9.681E+02                                 F               0         Blade 1 Z force, node 51, N
        154    3.867E+03                                 F               0         Blade 1 X force, node 52, N
        155    8.417E+01                                 F               0         Blade 1 Y force, node 52, N
        156   -8.458E+02                                 F               0         Blade 1 Z force, node 52, N
        157    3.940E+03                                 F               0         Blade 1 X force, node 53, N
        158    8.189E+01                                 F               0         Blade 1 Y force, node 53, N
        159   -8.547E+02                                 F               0         Blade 1 Z force, node 53, N
        160    4.057E+03                                 F               0         Blade 1 X force, node 54, N
        161    8.046E+01                                 F               0         Blade 1 Y force, node 54, N
        162   -8.731E+02                                 F               0         Blade 1 Z force, node 54, N
        163    4.041E+03                                 F               0         Blade 1 X force, node 55, N
        164    7.639E+01                                 F               0         Blade 1 Y force, node 55, N
        165   -8.628E+02                                 F               0         Blade 1 Z force, node 55, N
        166    4.157E+03                                 F               0         Blade 1 X force, node 56, N
        167    7.489E+01                                 F               0         Blade 1 Y force, node 56, N
        168   -8.809E+02                                 F               0         Blade 1 Z force, node 56, N
        169    4.995E+03                                 F               0         Blade 1 X force, node 57, N
        170    8.537E+01                                 F               0         Blade 1 Y force, node 57, N
        171   -1.050E+03                                 F               0         Blade 1 Z force, node 57, N
        172    3.536E+03                                 F               0         Blade 1 X force, node 58, N
        173    5.731E+01                                 F               0         Blade 1 Y force, node 58, N
        174   -7.376E+02                                 F               0         Blade 1 Z force, node 58, N
        175    4.374E+03                                 F               0         Blade 1 X force, node 59, N
        176    6.776E+01                                 F               0         Blade 1 Y force, node 59, N
        177   -9.068E+02                                 F               0         Blade 1 Z force, node 59, N
        178    3.765E+03                                 F               0         Blade 1 X force, node 60, N
        179    5.564E+01                                 F               0         Blade 1 Y force, node 60, N
        180   -7.757E+02                                 F               0         Blade 1 Z force, node 60, N
        181    5.199E+03                                 F               0         Blade 1 X force, node 61, N
        182    7.264E+01                                 F               0         Blade 1 Y force, node 61, N
        183   -1.064E+03                                 F               0         Blade 1 Z force, node 61, N
        184    4.588E+03                                 F               0         Blade 1 X force, node 62, N