
Linearized model: Predictions were generated on 12-Jan-2024 at 08:43:17 using OpenFAST, compiled as a 64-bit application using single precision at commit v3.5.1
 linked with  NWTC Subroutine Library; ElastoDyn; InflowWind; AeroDyn; ServoDyn; HydroDyn; MAP++ (<1.20.10>, <Oct-20-2023>)

Description from the FAST input file: CCT-9 Campign 4 model. Input files to be run with OpenFAST 3.5.0. GitHub branch from Lu Wang (https://github.com/luwang00/openfast/tree/dev) compiled on March 7, 2023.

Simulation information:
   Simulation time:                   506.9250 s
   Rotor Speed:                         0.7076 rad/s
   Azimuth:                             2.0332 rad
   Wind Speed:                          8.0000 m/s
   Number of continuous states:         0
   Number of discrete states:           0
   Number of constraint states:         0
   Number of inputs:                 1746
   Number of outputs:                   4
   Jacobians included in this file?    No

Order of inputs:
     Column   Operating Point                     Rotating Frame? Derivative Order Description
   ---------- ---------------                     --------------- ---------------- -----------
          1    7.314E+00                                 F               0         Tower X translation displacement, node 1, m
          2   -1.300E+00                                 F               0         Tower Y translation displacement, node 1, m
          3   -1.915E-01                                 F               0         Tower Z translation displacement, node 1, m
          4    8.374E+00                                 F               0         Tower X translation displacement, node 2, m
          5   -1.864E+00                                 F               0         Tower Y translation displacement, node 2, m
          6   -2.499E-01                                 F               0         Tower Z translation displacement, node 2, m
          7    9.450E+00                                 F               0         Tower X translation displacement, node 3, m
          8   -2.433E+00                                 F               0         Tower Y translation displacement, node 3, m
          9   -3.100E-01                                 F               0         Tower Z translation displacement, node 3, m
         10    1.054E+01                                 F               0         Tower X translation displacement, node 4, m
         11   -3.006E+00                                 F               0         Tower Y translation displacement, node 4, m
         12   -3.714E-01                                 F               0         Tower Z translation displacement, node 4, m
         13    1.164E+01                                 F               0         Tower X translation displacement, node 5, m
         14   -3.583E+00                                 F               0         Tower Y translation displacement, node 5, m
         15   -4.337E-01                                 F               0         Tower Z translation displacement, node 5, m
         16    1.274E+01                                 F               0         Tower X translation displacement, node 6, m
         17   -4.163E+00                                 F               0         Tower Y translation displacement, node 6, m
         18   -4.969E-01                                 F               0         Tower Z translation displacement, node 6, m
         19    1.385E+01                                 F               0         Tower X translation displacement, node 7, m
         20   -4.745E+00                                 F               0         Tower Y translation displacement, node 7, m
         21   -5.606E-01                                 F               0         Tower Z translation displacement, node 7, m
         22    1.496E+01                                 F               0         Tower X translation displacement, node 8, m
         23   -5.329E+00                                 F               0         Tower Y translation displacement, node 8, m
         24   -6.249E-01                                 F               0         Tower Z translation displacement, node 8, m
         25    1.608E+01                                 F               0         Tower X translation displacement, node 9, m
         26   -5.915E+00                                 F               0         Tower Y translation displacement, node 9, m
         27   -6.894E-01                                 F               0         Tower Z translation displacement, node 9, m
         28    1.720E+01                                 F               0         Tower X translation displacement, node 10, m
         29   -6.502E+00                                 F               0         Tower Y translation displacement, node 10, m
         30   -7.541E-01                                 F               0         Tower Z translation displacement, node 10, m
         31    1.832E+01                                 F               0         Tower X translation displacement, node 11, m
         32   -7.090E+00                                 F               0         Tower Y translation displacement, node 11, m
         33   -8.189E-01                                 F               0         Tower Z translation displacement, node 11, m
         34    9.964E-01,  4.810E-03, -8.515E-02         F               0         Tower X orientation angle, node 1, rad
         35   -9.183E-04,  9.990E-01,  4.568E-02         F               0         Tower Y orientation angle, node 1, rad
         36    8.528E-02, -4.543E-02,  9.953E-01         F               0         Tower Z orientation angle, node 1, rad
         37    9.963E-01,  4.865E-03, -8.637E-02         F               0         Tower X orientation angle, node 2, rad
         38   -8.827E-04,  9.989E-01,  4.609E-02         F               0         Tower Y orientation angle, node 2, rad
         39    8.650E-02, -4.584E-02,  9.952E-01         F               0         Tower Z orientation angle, node 2, rad
         40    9.962E-01,  4.914E-03, -8.742E-02         F               0         Tower X orientation angle, node 3, rad
         41   -8.502E-04,  9.989E-01,  4.646E-02         F               0         Tower Y orientation angle, node 3, rad
         42    8.755E-02, -4.621E-02,  9.951E-01         F               0         Tower Z orientation angle, node 3, rad
         43    9.961E-01,  4.954E-03, -8.829E-02         F               0         Tower X orientation angle, node 4, rad
         44   -8.215E-04,  9.989E-01,  4.679E-02         F               0         Tower Y orientation angle, node 4, rad
         45    8.842E-02, -4.653E-02,  9.950E-01         F               0         Tower Z orientation angle, node 4, rad
         46    9.960E-01,  4.987E-03, -8.898E-02         F               0         Tower X orientation angle, node 5, rad
         47   -7.968E-04,  9.989E-01,  4.707E-02         F               0         Tower Y orientation angle, node 5, rad
         48    8.911E-02, -4.681E-02,  9.949E-01         F               0         Tower Z orientation angle, node 5, rad
         49    9.960E-01,  5.012E-03, -8.951E-02         F               0         Tower X orientation angle, node 6, rad
         50   -7.759E-04,  9.989E-01,  4.730E-02         F               0         Tower Y orientation angle, node 6, rad
         51    8.965E-02, -4.704E-02,  9.949E-01         F               0         Tower Z orientation angle, node 6, rad
         52    9.959E-01,  5.030E-03, -8.989E-02         F               0         Tower X orientation angle, node 7, rad
         53   -7.592E-04,  9.989E-01,  4.749E-02         F               0         Tower Y orientation angle, node 7, rad
         54    9.002E-02, -4.722E-02,  9.948E-01         F               0         Tower Z orientation angle, node 7, rad
         55    9.959E-01,  5.043E-03, -9.015E-02         F               0         Tower X orientation angle, node 8, rad
         56   -7.461E-04,  9.989E-01,  4.763E-02         F               0         Tower Y orientation angle, node 8, rad
         57    9.028E-02, -4.737E-02,  9.948E-01         F               0         Tower Z orientation angle, node 8, rad
         58    9.959E-01,  5.051E-03, -9.031E-02         F               0         Tower X orientation angle, node 9, rad
         59   -7.366E-04,  9.989E-01,  4.774E-02         F               0         Tower Y orientation angle, node 9, rad
         60    9.045E-02, -4.747E-02,  9.948E-01         F               0         Tower Z orientation angle, node 9, rad
         61    9.959E-01,  5.055E-03, -9.040E-02         F               0         Tower X orientation angle, node 10, rad
         62   -7.304E-04,  9.989E-01,  4.781E-02         F               0         Tower Y orientation angle, node 10, rad
         63    9.054E-02, -4.754E-02,  9.948E-01         F               0         Tower Z orientation angle, node 10, rad
         64    9.959E-01,  5.057E-03, -9.044E-02         F               0         Tower X orientation angle, node 11, rad
         65   -7.269E-04,  9.989E-01,  4.784E-02         F               0         Tower Y orientation angle, node 11, rad
         66    9.058E-02, -4.758E-02,  9.948E-01         F               0         Tower Z orientation angle, node 11, rad
         67   -4.943E-03                                 F               0         Tower X translation velocity, node 1, m/s
         68    6.288E-03                                 F               0         Tower Y translation velocity, node 1, m/s
         69    3.509E-03                                 F               0         Tower Z translation velocity, node 1, m/s
         70   -4.750E-03                                 F               0         Tower X translation velocity, node 2, m/s
         71    9.949E-03                                 F               0         Tower Y translation velocity, node 2, m/s
         72    3.661E-03                                 F               0         Tower Z translation velocity, node 2, m/s
         73   -4.568E-03                                 F               0         Tower X translation velocity, node 3, m/s
         74    1.366E-02                                 F               0         Tower Y translation velocity, node 3, m/s
         75    3.816E-03                                 F               0         Tower Z translation velocity, node 3, m/s
         76   -4.396E-03                                 F               0         Tower X translation velocity, node 4, m/s
         77    1.740E-02                                 F               0         Tower Y translation velocity, node 4, m/s
         78    3.976E-03                                 F               0         Tower Z translation velocity, node 4, m/s
         79   -4.235E-03                                 F               0         Tower X translation velocity, node 5, m/s
         80    2.118E-02                                 F               0         Tower Y translation velocity, node 5, m/s
         81    4.138E-03                                 F               0         Tower Z translation velocity, node 5, m/s
         82   -4.084E-03                                 F               0         Tower X translation velocity, node 6, m/s
         83    2.498E-02                                 F               0         Tower Y translation velocity, node 6, m/s
         84    4.304E-03                                 F               0         Tower Z translation velocity, node 6, m/s
         85   -3.944E-03                                 F               0         Tower X translation velocity, node 7, m/s
         86    2.880E-02                                 F               0         Tower Y translation velocity, node 7, m/s
         87    4.473E-03                                 F               0         Tower Z translation velocity, node 7, m/s
         88   -3.814E-03                                 F               0         Tower X translation velocity, node 8, m/s
         89    3.264E-02                                 F               0         Tower Y translation velocity, node 8, m/s
         90    4.643E-03                                 F               0         Tower Z translation velocity, node 8, m/s
         91   -3.692E-03                                 F               0         Tower X translation velocity, node 9, m/s
         92    3.650E-02                                 F               0         Tower Y translation velocity, node 9, m/s
         93    4.816E-03                                 F               0         Tower Z translation velocity, node 9, m/s
         94   -3.577E-03                                 F               0         Tower X translation velocity, node 10, m/s
         95    4.036E-02                                 F               0         Tower Y translation velocity, node 10, m/s
         96    4.990E-03                                 F               0         Tower Z translation velocity, node 10, m/s
         97   -3.467E-03                                 F               0         Tower X translation velocity, node 11, m/s
         98    4.422E-02                                 F               0         Tower Y translation velocity, node 11, m/s
         99    5.165E-03                                 F               0         Tower Z translation velocity, node 11, m/s
        100    1.907E+01                                 F               0         Hub X translation displacement, node 1, m
        101   -7.518E+00                                 F               0         Hub Y translation displacement, node 1, m
        102    1.167E-01                                 F               0         Hub Z translation displacement, node 1, m
        103    9.810E-01,  1.000E-02, -1.939E-01         F               0         Hub X orientation angle, node 1, rad
        104    1.741E-01, -4.875E-01,  8.556E-01         F               0         Hub Y orientation angle, node 1, rad
        105   -8.598E-02, -8.731E-01, -4.800E-01         F               0         Hub Z orientation angle, node 1, rad
        106    6.938E-01                                 F               0         Hub X rotation velocity, node 1, rad/s
        107    7.085E-03                                 F               0         Hub Y rotation velocity, node 1, rad/s
        108   -1.372E-01                                 F               0         Hub Z rotation velocity, node 1, rad/s
        109    9.754E-01,  2.446E-02, -2.192E-01         F               0         Blade root 1 X orientation angle, node 1, rad
        110    2.031E-01, -4.870E-01,  8.495E-01         F               0         Blade root 1 Y orientation angle, node 1, rad
        111   -8.598E-02, -8.731E-01, -4.800E-01         F               0         Blade root 1 Z orientation angle, node 1, rad
        112    9.853E-01,  2.520E-02, -1.688E-01         F               0         Blade root 2 X orientation angle, node 1, rad
        113   -1.323E-01, -5.118E-01, -8.488E-01         F               0         Blade root 2 Y orientation angle, node 1, rad
        114   -1.078E-01,  8.587E-01, -5.010E-01         F               0         Blade root 2 Z orientation angle, node 1, rad
        115    9.809E-01, -1.966E-02, -1.935E-01         F               0         Blade root 3 X orientation angle, node 1, rad
        116    1.651E-02,  9.997E-01, -1.790E-02         F               0         Blade root 3 Y orientation angle, node 1, rad
        117    1.938E-01,  1.436E-02,  9.809E-01         F               0         Blade root 3 Z orientation angle, node 1, rad
        118    1.802E+01                                 F               0         Blade 1 X translation displacement, node 1, m
        119   -1.236E+01                                 F               0         Blade 1 Y translation displacement, node 1, m
        120   -8.052E+00                                 F               0         Blade 1 Z translation displacement, node 1, m
        121    1.776E+01                                 F               0         Blade 1 X translation displacement, node 2, m
        122   -1.352E+01                                 F               0         Blade 1 Y translation displacement, node 2, m
        123   -1.002E+01                                 F               0         Blade 1 Z translation displacement, node 2, m
        124    1.431E+01                                 F               0         Blade 1 X translation displacement, node 3, m
        125   -2.937E+01                                 F               0         Blade 1 Y translation displacement, node 3, m
        126   -3.679E+01                                 F               0         Blade 1 Z translation displacement, node 3, m
        127    1.357E+01                                 F               0         Blade 1 X translation displacement, node 4, m
        128   -3.275E+01                                 F               0         Blade 1 Y translation displacement, node 4, m
        129   -4.249E+01                                 F               0         Blade 1 Z translation displacement, node 4, m
        130    1.283E+01                                 F               0         Blade 1 X translation displacement, node 5, m
        131   -3.612E+01                                 F               0         Blade 1 Y translation displacement, node 5, m
        132   -4.819E+01                                 F               0         Blade 1 Z translation displacement, node 5, m
        133    1.210E+01                                 F               0         Blade 1 X translation displacement, node 6, m
        134   -3.950E+01                                 F               0         Blade 1 Y translation displacement, node 6, m
        135   -5.389E+01                                 F               0         Blade 1 Z translation displacement, node 6, m
        136    1.136E+01                                 F               0         Blade 1 X translation displacement, node 7, m
        137   -4.288E+01                                 F               0         Blade 1 Y translation displacement, node 7, m
        138   -5.960E+01                                 F               0         Blade 1 Z translation displacement, node 7, m
        139    1.062E+01                                 F               0         Blade 1 X translation displacement, node 8, m
        140   -4.625E+01                                 F               0         Blade 1 Y translation displacement, node 8, m
        141   -6.530E+01                                 F               0         Blade 1 Z translation displacement, node 8, m
        142    9.885E+00                                 F               0         Blade 1 X translation displacement, node 9, m
        143   -4.963E+01                                 F               0         Blade 1 Y translation displacement, node 9, m
        144   -7.100E+01                                 F               0         Blade 1 Z translation displacement, node 9, m
        145    9.148E+00                                 F               0         Blade 1 X translation displacement, node 10, m
        146   -5.301E+01                                 F               0         Blade 1 Y translation displacement, node 10, m
        147   -7.671E+01                                 F               0         Blade 1 Z translation displacement, node 10, m
        148    8.411E+00                                 F               0         Blade 1 X translation displacement, node 11, m
        149   -5.638E+01                                 F               0         Blade 1 Y translation displacement, node 11, m
        150   -8.241E+01                                 F               0         Blade 1 Z translation displacement, node 11, m
        151    7.674E+00                                 F               0         Blade 1 X translation displacement, node 12, m
        152   -5.976E+01                                 F               0         Blade 1 Y translation displacement, node 12, m
        153   -8.811E+01                                 F               0         Blade 1 Z translation displacement, node 12, m
        154    6.937E+00                                 F               0         Blade 1 X translation displacement, node 13, m
        155   -6.314E+01                                 F               0         Blade 1 Y translation displacement, node 13, m
        156   -9.381E+01                                 F               0         Blade 1 Z translation displacement, node 13, m
        157    6.201E+00                                 F               0         Blade 1 X translation displacement, node 14, m
        158   -6.651E+01                                 F               0         Blade 1 Y translation displacement, node 14, m
        159   -9.952E+01                                 F               0         Blade 1 Z translation displacement, node 14, m
        160    5.464E+00                                 F               0         Blade 1 X translation displacement, node 15, m
        161   -6.989E+01                                 F               0         Blade 1 Y translation displacement, node 15, m
        162   -1.052E+02                                 F               0         Blade 1 Z translation displacement, node 15, m
        163    4.727E+00                                 F               0         Blade 1 X translation displacement, node 16, m
        164   -7.327E+01                                 F               0         Blade 1 Y translation displacement, node 16, m
        165   -1.109E+02                                 F               0         Blade 1 Z translation displacement, node 16, m
        166    3.990E+00                                 F               0         Blade 1 X translation displacement, node 17, m
        167   -7.664E+01                                 F               0         Blade 1 Y translation displacement, node 17, m
        168   -1.166E+02                                 F               0         Blade 1 Z translation displacement, node 17, m
        169    3.253E+00                                 F               0         Blade 1 X translation displacement, node 18, m
        170   -8.002E+01                                 F               0         Blade 1 Y translation displacement, node 18, m
        171   -1.223E+02                                 F               0         Blade 1 Z translation displacement, node 18, m
        172    2.516E+00                                 F               0         Blade 1 X translation displacement, node 19, m
        173   -8.340E+01                                 F               0         Blade 1 Y translation displacement, node 19, m
        174   -1.280E+02                                 F               0         Blade 1 Z translation displacement, node 19, m
        175    1.780E+00                                 F               0         Blade 1 X translation displacement, node 20, m
        176   -8.677E+01                                 F               0         Blade 1 Y translation displacement, node 20, m
        177   -1.337E+02                                 F               0         Blade 1 Z translation displacement, node 20, m
        178    1.043E+00                                 F               0         Blade 1 X translation displacement, node 21, m
        179   -9.015E+01                                 F               0         Blade 1 Y translation displacement, node 21, m
        180   -1.394E+02                                 F               0         Blade 1 Z translation displacement, node 21, m
        181    3.059E-01                                 F               0         Blade 1 X translation displacement, node 22, m
        182   -9.353E+01                                 F               0         Blade 1 Y translation displacement, node 22, m
        183   -1.451E+02                                 F               0         Blade 1 Z translation displacement, node 22, m
        184   -4.309E-01                                 F               0         Blade 1 X translation displacement, node 23, m
        185   -9.690E+01                                 F               0         Blade 1 Y translation displacement, node 23, m
        186   -1.508E+02                                 F               0         Blade 1 Z translation displacement, node 23, m
        187   -1.168E+00                                 F               0         Blade 1 X translation displacement, node 24, m
        188   -1.003E+02                                 F               0         Blade 1 Y translation displacement, node 24, m
        189   -1.565E+02                                 F               0         Blade 1 Z translation displacement, node 24, m
        190   -1.904E+00                                 F               0         Blade 1 X translation displacement, node 25, m
        191   -1.037E+02                                 F               0         Blade 1 Y translation displacement, node 25, m
        192   -1.622E+02                                 F               0         Blade 1 Z translation displacement, node 25, m
        193   -2.641E+00                                 F               0         Blade 1 X translation displacement, node 26, m
        194   -1.070E+02                                 F               0         Blade 1 Y translation displacement, node 26, m
        195   -1.680E+02                                 F               0         Blade 1 Z translation displacement, node 26, m
        196   -3.378E+00                                 F               0         Blade 1 X translation displacement, node 27, m
        197   -1.104E+02                                 F               0         Blade 1 Y translation displacement, node 27, m
        198   -1.737E+02                                 F               0         Blade 1 Z translation displacement, node 27, m
        199   -4.003E+00                                 F               0         Blade 1 X translation displacement, node 28, m
        200   -1.133E+02                                 F               0         Blade 1 Y translation displacement, node 28, m
        201   -1.785E+02                                 F               0         Blade 1 Z translation displacement, node 28, m
        202    7.754E-01,  2.438E-01, -5.825E-01         F               0         Blade 1 X orientation angle, node 1, rad
        203    6.256E-01, -4.222E-01,  6.560E-01         F               0         Blade 1 Y orientation angle, node 1, rad
        204   -8.598E-02, -8.731E-01, -4.800E-01         F               0         Blade 1 Z orientation angle, node 1, rad
        205    7.754E-01,  2.438E-01, -5.825E-01         F               0         Blade 1 X orientation angle, node 2, rad
        206    6.256E-01, -4.222E-01,  6.560E-01         F               0         Blade 1 Y orientation angle, node 2, rad
        207   -8.598E-02, -8.731E-01, -4.800E-01         F               0         Blade 1 Z orientation angle, node 2, rad
        208    9.016E-01,  1.368E-01, -4.104E-01         F               0         Blade 1 X orientation angle, node 3, rad
        209    4.240E-01, -4.680E-01,  7.754E-01         F               0         Blade 1 Y orientation angle, node 3, rad
        210   -8.598E-02, -8.731E-01, -4.800E-01         F               0         Blade 1 Z orientation angle, node 3, rad
        211    9.187E-01,  1.169E-01, -3.773E-01         F               0         Blade 1 X orientation angle, node 4, rad
        212    3.855E-01, -4.734E-01,  7.920E-01         F               0         Blade 1 Y orientation angle, node 4, rad
        213   -8.598E-02, -8.731E-01, -4.800E-01         F               0         Blade 1 Z orientation angle, node 4, rad
        214    9.310E-01,  1.012E-01, -3.508E-01         F               0         Blade 1 X orientation angle, node 5, rad
        215    3.548E-01, -4.770E-01,  8.041E-01         F               0         Blade 1 Y orientation angle, node 5, rad
        216   -8.598E-02, -8.731E-01, -4.800E-01         F               0         Blade 1 Z orientation angle, node 5, rad
        217    9.400E-01,  8.848E-02, -3.294E-01         F               0         Blade 1 X orientation angle, node 6, rad
        218    3.300E-01, -4.795E-01,  8.131E-01         F               0         Blade 1 Y orientation angle, node 6, rad
        219   -8.598E-02, -8.731E-01, -4.800E-01         F               0         Blade 1 Z orientation angle, node 6, rad
        220    9.470E-01,  7.800E-02, -3.115E-01         F               0         Blade 1 X orientation angle, node 7, rad
        221    3.094E-01, -4.813E-01,  8.201E-01         F               0         Blade 1 Y orientation angle, node 7, rad
        222   -8.598E-02, -8.731E-01, -4.800E-01         F               0         Blade 1 Z orientation angle, node 7, rad
        223    9.525E-01,  6.925E-02, -2.966E-01         F               0         Blade 1 X orientation angle, node 8, rad
        224    2.922E-01, -4.826E-01,  8.256E-01         F               0         Blade 1 Y orientation angle, node 8, rad
        225   -8.598E-02, -8.731E-01, -4.800E-01         F               0         Blade 1 Z orientation angle, node 8, rad
        226    9.569E-01,  6.183E-02, -2.839E-01         F               0         Blade 1 X orientation angle, node 9, rad
        227    2.775E-01, -4.837E-01,  8.301E-01         F               0         Blade 1 Y orientation angle, node 9, rad