
Linearized model: Predictions were generated on 12-Jan-2024 at 08:43:17 using OpenFAST, compiled as a 64-bit application using single precision at commit v3.5.1
 linked with  NWTC Subroutine Library; ElastoDyn; InflowWind; AeroDyn; ServoDyn; HydroDyn; MAP++ (<1.20.10>, <Oct-20-2023>)

Description from the FAST input file: CCT-9 Campign 4 model. Input files to be run with OpenFAST 3.5.0. GitHub branch from Lu Wang (https://github.com/luwang00/openfast/tree/dev) compiled on March 7, 2023.

Simulation information:
   Simulation time:                   506.4250 s
   Rotor Speed:                         0.7075 rad/s
   Azimuth:                             1.6794 rad
   Wind Speed:                          8.0000 m/s
   Number of continuous states:         0
   Number of discrete states:           0
   Number of constraint states:         0
   Number of inputs:                 1746
   Number of outputs:                   4
   Jacobians included in this file?    No

Order of inputs:
     Column   Operating Point                     Rotating Frame? Derivative Order Description
   ---------- ---------------                     --------------- ---------------- -----------
          1    7.317E+00                                 F               0         Tower X translation displacement, node 1, m
          2   -1.304E+00                                 F               0         Tower Y translation displacement, node 1, m
          3   -1.932E-01                                 F               0         Tower Z translation displacement, node 1, m
          4    8.377E+00                                 F               0         Tower X translation displacement, node 2, m
          5   -1.869E+00                                 F               0         Tower Y translation displacement, node 2, m
          6   -2.518E-01                                 F               0         Tower Z translation displacement, node 2, m
          7    9.452E+00                                 F               0         Tower X translation displacement, node 3, m
          8   -2.440E+00                                 F               0         Tower Y translation displacement, node 3, m
          9   -3.119E-01                                 F               0         Tower Z translation displacement, node 3, m
         10    1.054E+01                                 F               0         Tower X translation displacement, node 4, m
         11   -3.015E+00                                 F               0         Tower Y translation displacement, node 4, m
         12   -3.734E-01                                 F               0         Tower Z translation displacement, node 4, m
         13    1.164E+01                                 F               0         Tower X translation displacement, node 5, m
         14   -3.593E+00                                 F               0         Tower Y translation displacement, node 5, m
         15   -4.358E-01                                 F               0         Tower Z translation displacement, node 5, m
         16    1.274E+01                                 F               0         Tower X translation displacement, node 6, m
         17   -4.175E+00                                 F               0         Tower Y translation displacement, node 6, m
         18   -4.991E-01                                 F               0         Tower Z translation displacement, node 6, m
         19    1.385E+01                                 F               0         Tower X translation displacement, node 7, m
         20   -4.759E+00                                 F               0         Tower Y translation displacement, node 7, m
         21   -5.629E-01                                 F               0         Tower Z translation displacement, node 7, m
         22    1.497E+01                                 F               0         Tower X translation displacement, node 8, m
         23   -5.346E+00                                 F               0         Tower Y translation displacement, node 8, m
         24   -6.272E-01                                 F               0         Tower Z translation displacement, node 8, m
         25    1.608E+01                                 F               0         Tower X translation displacement, node 9, m
         26   -5.934E+00                                 F               0         Tower Y translation displacement, node 9, m
         27   -6.918E-01                                 F               0         Tower Z translation displacement, node 9, m
         28    1.720E+01                                 F               0         Tower X translation displacement, node 10, m
         29   -6.523E+00                                 F               0         Tower Y translation displacement, node 10, m
         30   -7.566E-01                                 F               0         Tower Z translation displacement, node 10, m
         31    1.832E+01                                 F               0         Tower X translation displacement, node 11, m
         32   -7.112E+00                                 F               0         Tower Y translation displacement, node 11, m
         33   -8.215E-01                                 F               0         Tower Z translation displacement, node 11, m
         34    9.964E-01,  4.792E-03, -8.514E-02         F               0         Tower X orientation angle, node 1, rad
         35   -8.890E-04,  9.989E-01,  4.582E-02         F               0         Tower Y orientation angle, node 1, rad
         36    8.527E-02, -4.558E-02,  9.953E-01         F               0         Tower Z orientation angle, node 1, rad
         37    9.963E-01,  4.849E-03, -8.636E-02         F               0         Tower X orientation angle, node 2, rad
         38   -8.532E-04,  9.989E-01,  4.624E-02         F               0         Tower Y orientation angle, node 2, rad
         39    8.649E-02, -4.599E-02,  9.952E-01         F               0         Tower Z orientation angle, node 2, rad
         40    9.962E-01,  4.897E-03, -8.741E-02         F               0         Tower X orientation angle, node 3, rad
         41   -8.206E-04,  9.989E-01,  4.661E-02         F               0         Tower Y orientation angle, node 3, rad
         42    8.755E-02, -4.636E-02,  9.951E-01         F               0         Tower Z orientation angle, node 3, rad
         43    9.961E-01,  4.938E-03, -8.828E-02         F               0         Tower X orientation angle, node 4, rad
         44   -7.918E-04,  9.989E-01,  4.694E-02         F               0         Tower Y orientation angle, node 4, rad
         45    8.842E-02, -4.668E-02,  9.950E-01         F               0         Tower Z orientation angle, node 4, rad
         46    9.960E-01,  4.971E-03, -8.897E-02         F               0         Tower X orientation angle, node 5, rad
         47   -7.670E-04,  9.989E-01,  4.722E-02         F               0         Tower Y orientation angle, node 5, rad
         48    8.911E-02, -4.696E-02,  9.949E-01         F               0         Tower Z orientation angle, node 5, rad
         49    9.960E-01,  4.996E-03, -8.950E-02         F               0         Tower X orientation angle, node 6, rad
         50   -7.460E-04,  9.989E-01,  4.745E-02         F               0         Tower Y orientation angle, node 6, rad
         51    8.964E-02, -4.719E-02,  9.949E-01         F               0         Tower Z orientation angle, node 6, rad
         52    9.959E-01,  5.014E-03, -8.988E-02         F               0         Tower X orientation angle, node 7, rad
         53   -7.292E-04,  9.989E-01,  4.764E-02         F               0         Tower Y orientation angle, node 7, rad
         54    9.002E-02, -4.738E-02,  9.948E-01         F               0         Tower Z orientation angle, node 7, rad
         55    9.959E-01,  5.026E-03, -9.014E-02         F               0         Tower X orientation angle, node 8, rad
         56   -7.161E-04,  9.989E-01,  4.778E-02         F               0         Tower Y orientation angle, node 8, rad
         57    9.028E-02, -4.752E-02,  9.948E-01         F               0         Tower Z orientation angle, node 8, rad
         58    9.959E-01,  5.034E-03, -9.031E-02         F               0         Tower X orientation angle, node 9, rad
         59   -7.066E-04,  9.989E-01,  4.789E-02         F               0         Tower Y orientation angle, node 9, rad
         60    9.045E-02, -4.763E-02,  9.948E-01         F               0         Tower Z orientation angle, node 9, rad
         61    9.959E-01,  5.039E-03, -9.040E-02         F               0         Tower X orientation angle, node 10, rad
         62   -7.003E-04,  9.988E-01,  4.796E-02         F               0         Tower Y orientation angle, node 10, rad
         63    9.054E-02, -4.770E-02,  9.948E-01         F               0         Tower Z orientation angle, node 10, rad
         64    9.959E-01,  5.041E-03, -9.044E-02         F               0         Tower X orientation angle, node 11, rad
         65   -6.969E-04,  9.988E-01,  4.800E-02         F               0         Tower Y orientation angle, node 11, rad
         66    9.058E-02, -4.774E-02,  9.947E-01         F               0         Tower Z orientation angle, node 11, rad
         67   -5.036E-03                                 F               0         Tower X translation velocity, node 1, m/s
         68    6.695E-03                                 F               0         Tower Y translation velocity, node 1, m/s
         69    3.471E-03                                 F               0         Tower Z translation velocity, node 1, m/s
         70   -4.894E-03                                 F               0         Tower X translation velocity, node 2, m/s
         71    1.044E-02                                 F               0         Tower Y translation velocity, node 2, m/s
         72    3.631E-03                                 F               0         Tower Z translation velocity, node 2, m/s
         73   -4.749E-03                                 F               0         Tower X translation velocity, node 3, m/s
         74    1.422E-02                                 F               0         Tower Y translation velocity, node 3, m/s
         75    3.794E-03                                 F               0         Tower Z translation velocity, node 3, m/s
         76   -4.602E-03                                 F               0         Tower X translation velocity, node 4, m/s
         77    1.805E-02                                 F               0         Tower Y translation velocity, node 4, m/s
         78    3.960E-03                                 F               0         Tower Z translation velocity, node 4, m/s
         79   -4.452E-03                                 F               0         Tower X translation velocity, node 5, m/s
         80    2.190E-02                                 F               0         Tower Y translation velocity, node 5, m/s
         81    4.127E-03                                 F               0         Tower Z translation velocity, node 5, m/s
         82   -4.300E-03                                 F               0         Tower X translation velocity, node 6, m/s
         83    2.577E-02                                 F               0         Tower Y translation velocity, node 6, m/s
         84    4.297E-03                                 F               0         Tower Z translation velocity, node 6, m/s
         85   -4.148E-03                                 F               0         Tower X translation velocity, node 7, m/s
         86    2.966E-02                                 F               0         Tower Y translation velocity, node 7, m/s
         87    4.469E-03                                 F               0         Tower Z translation velocity, node 7, m/s
         88   -3.995E-03                                 F               0         Tower X translation velocity, node 8, m/s
         89    3.357E-02                                 F               0         Tower Y translation velocity, node 8, m/s
         90    4.641E-03                                 F               0         Tower Z translation velocity, node 8, m/s
         91   -3.841E-03                                 F               0         Tower X translation velocity, node 9, m/s
         92    3.749E-02                                 F               0         Tower Y translation velocity, node 9, m/s
         93    4.815E-03                                 F               0         Tower Z translation velocity, node 9, m/s
         94   -3.688E-03                                 F               0         Tower X translation velocity, node 10, m/s
         95    4.142E-02                                 F               0         Tower Y translation velocity, node 10, m/s
         96    4.989E-03                                 F               0         Tower Z translation velocity, node 10, m/s
         97   -3.534E-03                                 F               0         Tower X translation velocity, node 11, m/s
         98    4.535E-02                                 F               0         Tower Y translation velocity, node 11, m/s
         99    5.164E-03                                 F               0         Tower Z translation velocity, node 11, m/s
        100    1.908E+01                                 F               0         Hub X translation displacement, node 1, m
        101   -7.542E+00                                 F               0         Hub Y translation displacement, node 1, m
        102    1.140E-01                                 F               0         Hub Z translation displacement, node 1, m
        103    9.810E-01,  1.000E-02, -1.939E-01         F               0         Hub X orientation angle, node 1, rad
        104    1.931E-01, -1.550E-01,  9.689E-01         F               0         Hub Y orientation angle, node 1, rad
        105   -2.036E-02, -9.879E-01, -1.540E-01         F               0         Hub Z orientation angle, node 1, rad
        106    6.937E-01                                 F               0         Hub X rotation velocity, node 1, rad/s
        107    7.088E-03                                 F               0         Hub Y rotation velocity, node 1, rad/s
        108   -1.372E-01                                 F               0         Hub Z rotation velocity, node 1, rad/s
        109    9.748E-01,  1.460E-02, -2.226E-01         F               0         Blade root 1 X orientation angle, node 1, rad
        110    2.221E-01, -1.546E-01,  9.627E-01         F               0         Blade root 1 Y orientation angle, node 1, rad
        111   -2.036E-02, -9.879E-01, -1.540E-01         F               0         Blade root 1 Z orientation angle, node 1, rad
        112    9.839E-01,  3.308E-02, -1.755E-01         F               0         Blade root 2 X orientation angle, node 1, rad
        113   -8.504E-02, -7.774E-01, -6.232E-01         F               0         Blade root 2 Y orientation angle, node 1, rad
        114   -1.571E-01,  6.282E-01, -7.621E-01         F               0         Blade root 2 Z orientation angle, node 1, rad
        115    9.829E-01, -1.768E-02, -1.834E-01         F               0         Blade root 3 X orientation angle, node 1, rad
        116   -4.978E-02,  9.329E-01, -3.567E-01         F               0         Blade root 3 Y orientation angle, node 1, rad
        117    1.774E-01,  3.597E-01,  9.160E-01         F               0         Blade root 3 Z orientation angle, node 1, rad
        118    1.838E+01                                 F               0         Blade 1 X translation displacement, node 1, m
        119   -1.301E+01                                 F               0         Blade 1 Y translation displacement, node 1, m
        120   -6.249E+00                                 F               0         Blade 1 Z translation displacement, node 1, m
        121    1.822E+01                                 F               0         Blade 1 X translation displacement, node 2, m
        122   -1.433E+01                                 F               0         Blade 1 Y translation displacement, node 2, m
        123   -7.782E+00                                 F               0         Blade 1 Z translation displacement, node 2, m
        124    1.595E+01                                 F               0         Blade 1 X translation displacement, node 3, m
        125   -3.227E+01                                 F               0         Blade 1 Y translation displacement, node 3, m
        126   -2.863E+01                                 F               0         Blade 1 Z translation displacement, node 3, m
        127    1.547E+01                                 F               0         Blade 1 X translation displacement, node 4, m
        128   -3.609E+01                                 F               0         Blade 1 Y translation displacement, node 4, m
        129   -3.307E+01                                 F               0         Blade 1 Z translation displacement, node 4, m
        130    1.498E+01                                 F               0         Blade 1 X translation displacement, node 5, m
        131   -3.991E+01                                 F               0         Blade 1 Y translation displacement, node 5, m
        132   -3.751E+01                                 F               0         Blade 1 Z translation displacement, node 5, m
        133    1.450E+01                                 F               0         Blade 1 X translation displacement, node 6, m
        134   -4.373E+01                                 F               0         Blade 1 Y translation displacement, node 6, m
        135   -4.196E+01                                 F               0         Blade 1 Z translation displacement, node 6, m
        136    1.402E+01                                 F               0         Blade 1 X translation displacement, node 7, m
        137   -4.755E+01                                 F               0         Blade 1 Y translation displacement, node 7, m
        138   -4.640E+01                                 F               0         Blade 1 Z translation displacement, node 7, m
        139    1.353E+01                                 F               0         Blade 1 X translation displacement, node 8, m
        140   -5.137E+01                                 F               0         Blade 1 Y translation displacement, node 8, m
        141   -5.084E+01                                 F               0         Blade 1 Z translation displacement, node 8, m
        142    1.305E+01                                 F               0         Blade 1 X translation displacement, node 9, m
        143   -5.519E+01                                 F               0         Blade 1 Y translation displacement, node 9, m
        144   -5.528E+01                                 F               0         Blade 1 Z translation displacement, node 9, m
        145    1.257E+01                                 F               0         Blade 1 X translation displacement, node 10, m
        146   -5.901E+01                                 F               0         Blade 1 Y translation displacement, node 10, m
        147   -5.972E+01                                 F               0         Blade 1 Z translation displacement, node 10, m
        148    1.209E+01                                 F               0         Blade 1 X translation displacement, node 11, m
        149   -6.283E+01                                 F               0         Blade 1 Y translation displacement, node 11, m
        150   -6.417E+01                                 F               0         Blade 1 Z translation displacement, node 11, m
        151    1.160E+01                                 F               0         Blade 1 X translation displacement, node 12, m
        152   -6.665E+01                                 F               0         Blade 1 Y translation displacement, node 12, m
        153   -6.861E+01                                 F               0         Blade 1 Z translation displacement, node 12, m
        154    1.112E+01                                 F               0         Blade 1 X translation displacement, node 13, m
        155   -7.047E+01                                 F               0         Blade 1 Y translation displacement, node 13, m
        156   -7.305E+01                                 F               0         Blade 1 Z translation displacement, node 13, m
        157    1.064E+01                                 F               0         Blade 1 X translation displacement, node 14, m
        158   -7.429E+01                                 F               0         Blade 1 Y translation displacement, node 14, m
        159   -7.749E+01                                 F               0         Blade 1 Z translation displacement, node 14, m
        160    1.015E+01                                 F               0         Blade 1 X translation displacement, node 15, m
        161   -7.811E+01                                 F               0         Blade 1 Y translation displacement, node 15, m
        162   -8.193E+01                                 F               0         Blade 1 Z translation displacement, node 15, m
        163    9.670E+00                                 F               0         Blade 1 X translation displacement, node 16, m
        164   -8.194E+01                                 F               0         Blade 1 Y translation displacement, node 16, m
        165   -8.638E+01                                 F               0         Blade 1 Z translation displacement, node 16, m
        166    9.187E+00                                 F               0         Blade 1 X translation displacement, node 17, m
        167   -8.576E+01                                 F               0         Blade 1 Y translation displacement, node 17, m
        168   -9.082E+01                                 F               0         Blade 1 Z translation displacement, node 17, m
        169    8.704E+00                                 F               0         Blade 1 X translation displacement, node 18, m
        170   -8.958E+01                                 F               0         Blade 1 Y translation displacement, node 18, m
        171   -9.526E+01                                 F               0         Blade 1 Z translation displacement, node 18, m
        172    8.221E+00                                 F               0         Blade 1 X translation displacement, node 19, m
        173   -9.340E+01                                 F               0         Blade 1 Y translation displacement, node 19, m
        174   -9.970E+01                                 F               0         Blade 1 Z translation displacement, node 19, m
        175    7.738E+00                                 F               0         Blade 1 X translation displacement, node 20, m
        176   -9.722E+01                                 F               0         Blade 1 Y translation displacement, node 20, m
        177   -1.041E+02                                 F               0         Blade 1 Z translation displacement, node 20, m
        178    7.255E+00                                 F               0         Blade 1 X translation displacement, node 21, m
        179   -1.010E+02                                 F               0         Blade 1 Y translation displacement, node 21, m
        180   -1.086E+02                                 F               0         Blade 1 Z translation displacement, node 21, m
        181    6.772E+00                                 F               0         Blade 1 X translation displacement, node 22, m
        182   -1.049E+02                                 F               0         Blade 1 Y translation displacement, node 22, m
        183   -1.130E+02                                 F               0         Blade 1 Z translation displacement, node 22, m
        184    6.289E+00                                 F               0         Blade 1 X translation displacement, node 23, m
        185   -1.087E+02                                 F               0         Blade 1 Y translation displacement, node 23, m
        186   -1.175E+02                                 F               0         Blade 1 Z translation displacement, node 23, m
        187    5.806E+00                                 F               0         Blade 1 X translation displacement, node 24, m
        188   -1.125E+02                                 F               0         Blade 1 Y translation displacement, node 24, m
        189   -1.219E+02                                 F               0         Blade 1 Z translation displacement, node 24, m
        190    5.323E+00                                 F               0         Blade 1 X translation displacement, node 25, m
        191   -1.163E+02                                 F               0         Blade 1 Y translation displacement, node 25, m
        192   -1.264E+02                                 F               0         Blade 1 Z translation displacement, node 25, m
        193    4.840E+00                                 F               0         Blade 1 X translation displacement, node 26, m
        194   -1.201E+02                                 F               0         Blade 1 Y translation displacement, node 26, m
        195   -1.308E+02                                 F               0         Blade 1 Z translation displacement, node 26, m
        196    4.357E+00                                 F               0         Blade 1 X translation displacement, node 27, m
        197   -1.240E+02                                 F               0         Blade 1 Y translation displacement, node 27, m
        198   -1.352E+02                                 F               0         Blade 1 Z translation displacement, node 27, m
        199    3.947E+00                                 F               0         Blade 1 X translation displacement, node 28, m
        200   -1.272E+02                                 F               0         Blade 1 Y translation displacement, node 28, m
        201   -1.390E+02                                 F               0         Blade 1 Z translation displacement, node 28, m
        202    7.663E-01,  8.350E-02, -6.371E-01         F               0         Blade 1 X orientation angle, node 1, rad
        203    6.422E-01, -1.310E-01,  7.553E-01         F               0         Blade 1 Y orientation angle, node 1, rad
        204   -2.036E-02, -9.879E-01, -1.540E-01         F               0         Blade 1 Z orientation angle, node 1, rad
        205    7.663E-01,  8.350E-02, -6.371E-01         F               0         Blade 1 X orientation angle, node 2, rad
        206    6.422E-01, -1.310E-01,  7.553E-01         F               0         Blade 1 Y orientation angle, node 2, rad
        207   -2.036E-02, -9.879E-01, -1.540E-01         F               0         Blade 1 Z orientation angle, node 2, rad
        208    8.966E-01,  5.008E-02, -4.399E-01         F               0         Blade 1 X orientation angle, node 3, rad
        209    4.423E-01, -1.470E-01,  8.847E-01         F               0         Blade 1 Y orientation angle, node 3, rad
        210   -2.036E-02, -9.879E-01, -1.540E-01         F               0         Blade 1 Z orientation angle, node 3, rad
        211    9.145E-01,  4.383E-02, -4.022E-01         F               0         Blade 1 X orientation angle, node 4, rad
        212    4.040E-01, -1.490E-01,  9.025E-01         F               0         Blade 1 Y orientation angle, node 4, rad
        213   -2.036E-02, -9.879E-01, -1.540E-01         F               0         Blade 1 Z orientation angle, node 4, rad
        214    9.274E-01,  3.887E-02, -3.720E-01         F               0         Blade 1 X orientation angle, node 5, rad
        215    3.735E-01, -1.504E-01,  9.154E-01         F               0         Blade 1 Y orientation angle, node 5, rad
        216   -2.036E-02, -9.879E-01, -1.540E-01         F               0         Blade 1 Z orientation angle, node 5, rad
        217    9.370E-01,  3.486E-02, -3.476E-01         F               0         Blade 1 X orientation angle, node 6, rad
        218    3.488E-01, -1.513E-01,  9.249E-01         F               0         Blade 1 Y orientation angle, node 6, rad
        219   -2.036E-02, -9.879E-01, -1.540E-01         F               0         Blade 1 Z orientation angle, node 6, rad
        220    9.444E-01,  3.156E-02, -3.274E-01         F               0         Blade 1 X orientation angle, node 7, rad
        221    3.283E-01, -1.521E-01,  9.323E-01         F               0         Blade 1 Y orientation angle, node 7, rad
        222   -2.036E-02, -9.879E-01, -1.540E-01         F               0         Blade 1 Z orientation angle, node 7, rad
        223    9.502E-01,  2.879E-02, -3.104E-01         F               0         Blade 1 X orientation angle, node 8, rad
        224    3.111E-01, -1.526E-01,  9.381E-01         F               0         Blade 1 Y orientation angle, node 8, rad
        225   -2.036E-02, -9.879E-01, -1.540E-01         F               0         Blade 1 Z orientation angle, node 8, rad
        226    9.548E-01,  2.644E-02, -2.959E-01         F               0         Blade 1 X orientation angle, node 9, rad
        227    2.964E-01, -1.530E-01,  9.427E-01         F               0         Blade 1 Y orientation angle, node 9, rad