
Linearized model: Predictions were generated on 12-Jan-2024 at 08:43:17 using OpenFAST, compiled as a 64-bit application using single precision at commit v3.5.1
 linked with  NWTC Subroutine Library; ElastoDyn; InflowWind; AeroDyn; ServoDyn; HydroDyn; MAP++ (<1.20.10>, <Oct-20-2023>)

Description from the FAST input file: CCT-9 Campign 4 model. Input files to be run with OpenFAST 3.5.0. GitHub branch from Lu Wang (https://github.com/luwang00/openfast/tree/dev) compiled on March 7, 2023.

Simulation information:
   Simulation time:                   501.9750 s
   Rotor Speed:                         0.7076 rad/s
   Azimuth:                             4.8142 rad
   Wind Speed:                          8.0000 m/s
   Number of continuous states:        22
   Number of discrete states:           0
   Number of constraint states:         0
   Number of inputs:                 3988
   Number of outputs:                  58
   Jacobians included in this file?    No

Order of continuous states:
   Row/Column Operating Point                     Rotating Frame? Derivative Order Description
   ---------- ---------------                     --------------- ---------------- -----------
          1    5.775E+00                                 F               2         ED Platform horizontal surge translation DOF (internal DOF index = DOF_Sg), m
          2   -4.752E-01                                 F               2         ED Platform horizontal sway translation DOF (internal DOF index = DOF_Sw), m
          3   -1.161E-01                                 F               2         ED Platform vertical heave translation DOF (internal DOF index = DOF_Hv), m
          4    4.698E-02                                 F               2         ED Platform roll tilt rotation DOF (internal DOF index = DOF_R), rad
          5    8.562E-02                                 F               2         ED Platform pitch tilt rotation DOF (internal DOF index = DOF_P), rad
          6    2.631E-03                                 F               2         ED Platform yaw rotation DOF (internal DOF index = DOF_Y), rad
          7    4.671E-01                                 F               2         ED 1st tower fore-aft bending mode DOF (internal DOF index = DOF_TFA1), m
          8    1.857E-01                                 F               2         ED 1st tower side-to-side bending mode DOF (internal DOF index = DOF_TSS1), m
          9    1.465E-03                                 F               2         ED 2nd tower fore-aft bending mode DOF (internal DOF index = DOF_TFA2), m
         10    8.195E-05                                 F               2         ED 2nd tower side-to-side bending mode DOF (internal DOF index = DOF_TSS2), m
         11    3.243E+00                                 F               2         ED Variable speed generator DOF (internal DOF index = DOF_GeAz), rad
         12   -4.533E-03                                 F               2         ED First time derivative of Platform horizontal surge translation DOF (internal DOF index = DOF_Sg), m/s
         13    1.836E-03                                 F               2         ED First time derivative of Platform horizontal sway translation DOF (internal DOF index = DOF_Sw), m/s
         14    2.707E-04                                 F               2         ED First time derivative of Platform vertical heave translation DOF (internal DOF index = DOF_Hv), m/s
         15   -1.269E-04                                 F               2         ED First time derivative of Platform roll tilt rotation DOF (internal DOF index = DOF_R), rad/s
         16   -6.568E-06                                 F               2         ED First time derivative of Platform pitch tilt rotation DOF (internal DOF index = DOF_P), rad/s
         17    4.807E-05                                 F               2         ED First time derivative of Platform yaw rotation DOF (internal DOF index = DOF_Y), rad/s
         18   -9.104E-05                                 F               2         ED First time derivative of 1st tower fore-aft bending mode DOF (internal DOF index = DOF_TFA1), m/s
         19   -1.374E-03                                 F               2         ED First time derivative of 1st tower side-to-side bending mode DOF (internal DOF index = DOF_TSS1), m/s
         20   -5.398E-07                                 F               2         ED First time derivative of 2nd tower fore-aft bending mode DOF (internal DOF index = DOF_TFA2), m/s
         21    6.108E-07                                 F               2         ED First time derivative of 2nd tower side-to-side bending mode DOF (internal DOF index = DOF_TSS2), m/s
         22    7.076E-01                                 F               2         ED First time derivative of Variable speed generator DOF (internal DOF index = DOF_GeAz), rad/s

Order of continuous state derivatives:
   Row/Column Operating Point                     Rotating Frame? Derivative Order Description
   ---------- ---------------                     --------------- ---------------- -----------
          1   -4.533E-03                                 F               2         First time derivative of ED Platform horizontal surge translation DOF (internal DOF index = DOF_Sg), m/s
          2    1.836E-03                                 F               2         First time derivative of ED Platform horizontal sway translation DOF (internal DOF index = DOF_Sw), m/s
          3    2.707E-04                                 F               2         First time derivative of ED Platform vertical heave translation DOF (internal DOF index = DOF_Hv), m/s
          4   -1.269E-04                                 F               2         First time derivative of ED Platform roll tilt rotation DOF (internal DOF index = DOF_R), rad/s
          5   -6.568E-06                                 F               2         First time derivative of ED Platform pitch tilt rotation DOF (internal DOF index = DOF_P), rad/s
          6    4.807E-05                                 F               2         First time derivative of ED Platform yaw rotation DOF (internal DOF index = DOF_Y), rad/s
          7   -9.104E-05                                 F               2         First time derivative of ED 1st tower fore-aft bending mode DOF (internal DOF index = DOF_TFA1), m/s
          8   -1.374E-03                                 F               2         First time derivative of ED 1st tower side-to-side bending mode DOF (internal DOF index = DOF_TSS1), m/s
          9   -5.398E-07                                 F               2         First time derivative of ED 2nd tower fore-aft bending mode DOF (internal DOF index = DOF_TFA2), m/s
         10    6.108E-07                                 F               2         First time derivative of ED 2nd tower side-to-side bending mode DOF (internal DOF index = DOF_TSS2), m/s
         11    7.076E-01                                 F               2         First time derivative of ED Variable speed generator DOF (internal DOF index = DOF_GeAz), rad/s
         12   -3.795E-04                                 F               2         First time derivative of ED First time derivative of Platform horizontal surge translation DOF (internal DOF index = DOF_Sg), m/s/s
         13   -1.058E-04                                 F               2         First time derivative of ED First time derivative of Platform horizontal sway translation DOF (internal DOF index = DOF_Sw), m/s/s
         14    8.144E-04                                 F               2         First time derivative of ED First time derivative of Platform vertical heave translation DOF (internal DOF index = DOF_Hv), m/s/s
         15   -5.824E-05                                 F               2         First time derivative of ED First time derivative of Platform roll tilt rotation DOF (internal DOF index = DOF_R), rad/s/s
         16   -6.341E-06                                 F               2         First time derivative of ED First time derivative of Platform pitch tilt rotation DOF (internal DOF index = DOF_P), rad/s/s
         17    4.222E-06                                 F               2         First time derivative of ED First time derivative of Platform yaw rotation DOF (internal DOF index = DOF_Y), rad/s/s
         18    1.234E-03                                 F               2         First time derivative of ED First time derivative of 1st tower fore-aft bending mode DOF (internal DOF index = DOF_TFA1), m/s/s
         19   -2.453E-04                                 F               2         First time derivative of ED First time derivative of 1st tower side-to-side bending mode DOF (internal DOF index = DOF_TSS1), m/s/s
         20   -4.658E-06                                 F               2         First time derivative of ED First time derivative of 2nd tower fore-aft bending mode DOF (internal DOF index = DOF_TFA2), m/s/s
         21   -2.534E-06                                 F               2         First time derivative of ED First time derivative of 2nd tower side-to-side bending mode DOF (internal DOF index = DOF_TSS2), m/s/s
         22   -1.923E-05                                 F               2         First time derivative of ED First time derivative of Variable speed generator DOF (internal DOF index = DOF_GeAz), rad/s/s

Order of inputs:
     Column   Operating Point                     Rotating Frame? Derivative Order Description
   ---------- ---------------                     --------------- ---------------- -----------
          1   -1.080E+01                                 F               0         IfW X-component position of node 1 (hub), m
          2    0.000E+00                                 F               0         IfW Y-component position of node 1 (hub), m
          3    1.497E+02                                 F               0         IfW Z-component position of node 1 (hub), m
          4    8.403E+00                                 F               0         IfW X-component position of node 2 (blade 1, node 1), m
          5   -2.236E+00                                 F               0         IfW Y-component position of node 2 (blade 1, node 1), m
          6    1.507E+02                                 F               0         IfW Z-component position of node 2 (blade 1, node 1), m
          7    8.429E+00                                 F               0         IfW X-component position of node 3 (blade 1, node 2), m
          8   -9.164E-01                                 F               0         IfW Y-component position of node 3 (blade 1, node 2), m
          9    1.509E+02                                 F               0         IfW Z-component position of node 3 (blade 1, node 2), m
         10    8.780E+00                                 F               0         IfW X-component position of node 4 (blade 1, node 3), m
         11    1.703E+01                                 F               0         IfW Y-component position of node 4 (blade 1, node 3), m
         12    1.536E+02                                 F               0         IfW Z-component position of node 4 (blade 1, node 3), m
         13    8.854E+00                                 F               0         IfW X-component position of node 5 (blade 1, node 4), m
         14    2.086E+01                                 F               0         IfW Y-component position of node 5 (blade 1, node 4), m
         15    1.541E+02                                 F               0         IfW Z-component position of node 5 (blade 1, node 4), m
         16    8.929E+00                                 F               0         IfW X-component position of node 6 (blade 1, node 5), m
         17    2.468E+01                                 F               0         IfW Y-component position of node 6 (blade 1, node 5), m
         18    1.547E+02                                 F               0         IfW Z-component position of node 6 (blade 1, node 5), m
         19    9.004E+00                                 F               0         IfW X-component position of node 7 (blade 1, node 6), m
         20    2.850E+01                                 F               0         IfW Y-component position of node 7 (blade 1, node 6), m
         21    1.553E+02                                 F               0         IfW Z-component position of node 7 (blade 1, node 6), m
         22    9.079E+00                                 F               0         IfW X-component position of node 8 (blade 1, node 7), m
         23    3.233E+01                                 F               0         IfW Y-component position of node 8 (blade 1, node 7), m
         24    1.559E+02                                 F               0         IfW Z-component position of node 8 (blade 1, node 7), m
         25    9.153E+00                                 F               0         IfW X-component position of node 9 (blade 1, node 8), m
         26    3.615E+01                                 F               0         IfW Y-component position of node 9 (blade 1, node 8), m
         27    1.564E+02                                 F               0         IfW Z-component position of node 9 (blade 1, node 8), m
         28    9.228E+00                                 F               0         IfW X-component position of node 10 (blade 1, node 9), m
         29    3.998E+01                                 F               0         IfW Y-component position of node 10 (blade 1, node 9), m
         30    1.570E+02                                 F               0         IfW Z-component position of node 10 (blade 1, node 9), m
         31    9.303E+00                                 F               0         IfW X-component position of node 11 (blade 1, node 10), m
         32    4.380E+01                                 F               0         IfW Y-component position of node 11 (blade 1, node 10), m
         33    1.576E+02                                 F               0         IfW Z-component position of node 11 (blade 1, node 10), m
         34    9.378E+00                                 F               0         IfW X-component position of node 12 (blade 1, node 11), m
         35    4.762E+01                                 F               0         IfW Y-component position of node 12 (blade 1, node 11), m
         36    1.581E+02                                 F               0         IfW Z-component position of node 12 (blade 1, node 11), m
         37    9.452E+00                                 F               0         IfW X-component position of node 13 (blade 1, node 12), m
         38    5.145E+01                                 F               0         IfW Y-component position of node 13 (blade 1, node 12), m
         39    1.587E+02                                 F               0         IfW Z-component position of node 13 (blade 1, node 12), m
         40    9.527E+00                                 F               0         IfW X-component position of node 14 (blade 1, node 13), m
         41    5.527E+01                                 F               0         IfW Y-component position of node 14 (blade 1, node 13), m
         42    1.593E+02                                 F               0         IfW Z-component position of node 14 (blade 1, node 13), m
         43    9.602E+00                                 F               0         IfW X-component position of node 15 (blade 1, node 14), m
         44    5.910E+01                                 F               0         IfW Y-component position of node 15 (blade 1, node 14), m
         45    1.599E+02                                 F               0         IfW Z-component position of node 15 (blade 1, node 14), m
         46    9.677E+00                                 F               0         IfW X-component position of node 16 (blade 1, node 15), m
         47    6.292E+01                                 F               0         IfW Y-component position of node 16 (blade 1, node 15), m
         48    1.604E+02                                 F               0         IfW Z-component position of node 16 (blade 1, node 15), m
         49    9.751E+00                                 F               0         IfW X-component position of node 17 (blade 1, node 16), m
         50    6.674E+01                                 F               0         IfW Y-component position of node 17 (blade 1, node 16), m
         51    1.610E+02                                 F               0         IfW Z-component position of node 17 (blade 1, node 16), m
         52    9.826E+00                                 F               0         IfW X-component position of node 18 (blade 1, node 17), m
         53    7.057E+01                                 F               0         IfW Y-component position of node 18 (blade 1, node 17), m
         54    1.616E+02                                 F               0         IfW Z-component position of node 18 (blade 1, node 17), m
         55    9.901E+00                                 F               0         IfW X-component position of node 19 (blade 1, node 18), m
         56    7.439E+01                                 F               0         IfW Y-component position of node 19 (blade 1, node 18), m
         57    1.622E+02                                 F               0         IfW Z-component position of node 19 (blade 1, node 18), m
         58    9.975E+00                                 F               0         IfW X-component position of node 20 (blade 1, node 19), m
         59    7.822E+01                                 F               0         IfW Y-component position of node 20 (blade 1, node 19), m
         60    1.627E+02                                 F               0         IfW Z-component position of node 20 (blade 1, node 19), m
         61    1.005E+01                                 F               0         IfW X-component position of node 21 (blade 1, node 20), m
         62    8.204E+01                                 F               0         IfW Y-component position of node 21 (blade 1, node 20), m
         63    1.633E+02                                 F               0         IfW Z-component position of node 21 (blade 1, node 20), m
         64    1.012E+01                                 F               0         IfW X-component position of node 22 (blade 1, node 21), m
         65    8.586E+01                                 F               0         IfW Y-component position of node 22 (blade 1, node 21), m
         66    1.639E+02                                 F               0         IfW Z-component position of node 22 (blade 1, node 21), m
         67    1.020E+01                                 F               0         IfW X-component position of node 23 (blade 1, node 22), m
         68    8.969E+01                                 F               0         IfW Y-component position of node 23 (blade 1, node 22), m
         69    1.645E+02                                 F               0         IfW Z-component position of node 23 (blade 1, node 22), m
         70    1.027E+01                                 F               0         IfW X-component position of node 24 (blade 1, node 23), m
         71    9.351E+01                                 F               0         IfW Y-component position of node 24 (blade 1, node 23), m
         72    1.650E+02                                 F               0         IfW Z-component position of node 24 (blade 1, node 23), m
         73    1.035E+01                                 F               0         IfW X-component position of node 25 (blade 1, node 24), m
         74    9.734E+01                                 F               0         IfW Y-component position of node 25 (blade 1, node 24), m
         75    1.656E+02                                 F               0         IfW Z-component position of node 25 (blade 1, node 24), m
         76    1.042E+01                                 F               0         IfW X-component position of node 26 (blade 1, node 25), m
         77    1.012E+02                                 F               0         IfW Y-component position of node 26 (blade 1, node 25), m
         78    1.662E+02                                 F               0         IfW Z-component position of node 26 (blade 1, node 25), m
         79    1.050E+01                                 F               0         IfW X-component position of node 27 (blade 1, node 26), m
         80    1.050E+02                                 F               0         IfW Y-component position of node 27 (blade 1, node 26), m
         81    1.668E+02                                 F               0         IfW Z-component position of node 27 (blade 1, node 26), m
         82    1.057E+01                                 F               0         IfW X-component position of node 28 (blade 1, node 27), m
         83    1.088E+02                                 F               0         IfW Y-component position of node 28 (blade 1, node 27), m
         84    1.673E+02                                 F               0         IfW Z-component position of node 28 (blade 1, node 27), m
         85    1.064E+01                                 F               0         IfW X-component position of node 29 (blade 1, node 28), m
         86    1.121E+02                                 F               0         IfW Y-component position of node 29 (blade 1, node 28), m
         87    1.678E+02                                 F               0         IfW Z-component position of node 29 (blade 1, node 28), m
         88    9.170E+00                                 F               0         IfW X-component position of node 30 (blade 2, node 1), m
         89   -1.117E+01                                 F               0         IfW Y-component position of node 30 (blade 2, node 1), m
         90    1.541E+02                                 F               0         IfW Z-component position of node 30 (blade 2, node 1), m
         91    9.380E+00                                 F               0         IfW X-component position of node 31 (blade 2, node 2), m
         92   -1.200E+01                                 F               0         IfW Y-component position of node 31 (blade 2, node 2), m
         93    1.551E+02                                 F               0         IfW Z-component position of node 31 (blade 2, node 2), m
         94    1.224E+01                                 F               0         IfW X-component position of node 32 (blade 2, node 3), m
         95   -2.332E+01                                 F               0         IfW Y-component position of node 32 (blade 2, node 3), m
         96    1.690E+02                                 F               0         IfW Z-component position of node 32 (blade 2, node 3), m
         97    1.285E+01                                 F               0         IfW X-component position of node 33 (blade 2, node 4), m
         98   -2.574E+01                                 F               0         IfW Y-component position of node 33 (blade 2, node 4), m
         99    1.720E+02                                 F               0         IfW Z-component position of node 33 (blade 2, node 4), m
        100    1.346E+01                                 F               0         IfW X-component position of node 34 (blade 2, node 5), m
        101   -2.815E+01                                 F               0         IfW Y-component position of node 34 (blade 2, node 5), m
        102    1.749E+02                                 F               0         IfW Z-component position of node 34 (blade 2, node 5), m
        103    1.407E+01                                 F               0         IfW X-component position of node 35 (blade 2, node 6), m
        104   -3.056E+01                                 F               0         IfW Y-component position of node 35 (blade 2, node 6), m
        105    1.779E+02                                 F               0         IfW Z-component position of node 35 (blade 2, node 6), m
        106    1.468E+01                                 F               0         IfW X-component position of node 36 (blade 2, node 7), m
        107   -3.297E+01                                 F               0         IfW Y-component position of node 36 (blade 2, node 7), m
        108    1.808E+02                                 F               0         IfW Z-component position of node 36 (blade 2, node 7), m
        109    1.529E+01                                 F               0         IfW X-component position of node 37 (blade 2, node 8), m
        110   -3.539E+01                                 F               0         IfW Y-component position of node 37 (blade 2, node 8), m
        111    1.838E+02                                 F               0         IfW Z-component position of node 37 (blade 2, node 8), m
        112    1.590E+01                                 F               0         IfW X-component position of node 38 (blade 2, node 9), m
        113   -3.780E+01                                 F               0         IfW Y-component position of node 38 (blade 2, node 9), m
        114    1.868E+02                                 F               0         IfW Z-component position of node 38 (blade 2, node 9), m
        115    1.651E+01                                 F               0         IfW X-component position of node 39 (blade 2, node 10), m
        116   -4.021E+01                                 F               0         IfW Y-component position of node 39 (blade 2, node 10), m
        117    1.897E+02                                 F               0         IfW Z-component position of node 39 (blade 2, node 10), m
        118    1.712E+01                                 F               0         IfW X-component position of node 40 (blade 2, node 11), m
        119   -4.262E+01                                 F               0         IfW Y-component position of node 40 (blade 2, node 11), m
        120    1.927E+02                                 F               0         IfW Z-component position of node 40 (blade 2, node 11), m
        121    1.773E+01                                 F               0         IfW X-component position of node 41 (blade 2, node 12), m
        122   -4.504E+01                                 F               0         IfW Y-component position of node 41 (blade 2, node 12), m
        123    1.956E+02                                 F               0         IfW Z-component position of node 41 (blade 2, node 12), m
        124    1.834E+01                                 F               0         IfW X-component position of node 42 (blade 2, node 13), m
        125   -4.745E+01                                 F               0         IfW Y-component position of node 42 (blade 2, node 13), m
        126    1.986E+02                                 F               0         IfW Z-component position of node 42 (blade 2, node 13), m
        127    1.895E+01                                 F               0         IfW X-component position of node 43 (blade 2, node 14), m
        128   -4.986E+01                                 F               0         IfW Y-component position of node 43 (blade 2, node 14), m
        129    2.016E+02                                 F               0         IfW Z-component position of node 43 (blade 2, node 14), m
        130    1.956E+01                                 F               0         IfW X-component position of node 44 (blade 2, node 15), m
        131   -5.228E+01                                 F               0         IfW Y-component position of node 44 (blade 2, node 15), m
        132    2.045E+02                                 F               0         IfW Z-component position of node 44 (blade 2, node 15), m
        133    2.017E+01                                 F               0         IfW X-component position of node 45 (blade 2, node 16), m
        134   -5.469E+01                                 F               0         IfW Y-component position of node 45 (blade 2, node 16), m
        135    2.075E+02                                 F               0         IfW Z-component position of node 45 (blade 2, node 16), m
        136    2.078E+01                                 F               0         IfW X-component position of node 46 (blade 2, node 17), m
        137   -5.710E+01                                 F               0         IfW Y-component position of node 46 (blade 2, node 17), m
        138    2.104E+02                                 F               0         IfW Z-component position of node 46 (blade 2, node 17), m
        139    2.139E+01                                 F               0         IfW X-component position of node 47 (blade 2, node 18), m
        140   -5.951E+01                                 F               0         IfW Y-component position of node 47 (blade 2, node 18), m
        141    2.134E+02                                 F               0         IfW Z-component position of node 47 (blade 2, node 18), m
        142    2.200E+01                                 F               0         IfW X-component position of node 48 (blade 2, node 19), m
        143   -6.193E+01                                 F               0         IfW Y-component position of node 48 (blade 2, node 19), m
        144    2.164E+02                                 F               0         IfW Z-component position of node 48 (blade 2, node 19), m