
Linearized model: Predictions were generated on 12-Jan-2024 at 08:43:17 using OpenFAST, compiled as a 64-bit application using single precision at commit v3.5.1
 linked with  NWTC Subroutine Library; ElastoDyn; InflowWind; AeroDyn; ServoDyn; HydroDyn; MAP++ (<1.20.10>, <Oct-20-2023>)

Description from the FAST input file: CCT-9 Campign 4 model. Input files to be run with OpenFAST 3.5.0. GitHub branch from Lu Wang (https://github.com/luwang00/openfast/tree/dev) compiled on March 7, 2023.

Simulation information:
   Simulation time:                   506.1750 s
   Rotor Speed:                         0.7075 rad/s
   Azimuth:                             1.5026 rad
   Wind Speed:                          8.0000 m/s
   Number of continuous states:         0
   Number of discrete states:           0
   Number of constraint states:         0
   Number of inputs:                  303
   Number of outputs:                   1
   Jacobians included in this file?    No

Order of inputs:
     Column   Operating Point                     Rotating Frame? Derivative Order Description
   ---------- ---------------                     --------------- ---------------- -----------
          1   -1.080E+01                                 F               0         X-component position of node 1 (hub), m
          2    0.000E+00                                 F               0         Y-component position of node 1 (hub), m
          3    1.497E+02                                 F               0         Z-component position of node 1 (hub), m
          4    8.353E+00                                 F               0         X-component position of node 2 (blade 1, node 1), m
          5   -1.309E+01                                 F               0         Y-component position of node 2 (blade 1, node 1), m
          6    1.500E+02                                 F               0         Z-component position of node 2 (blade 1, node 1), m
          7    8.371E+00                                 F               0         X-component position of node 3 (blade 1, node 2), m
          8   -1.443E+01                                 F               0         Y-component position of node 3 (blade 1, node 2), m
          9    1.500E+02                                 F               0         Z-component position of node 3 (blade 1, node 2), m
         10    8.624E+00                                 F               0         X-component position of node 4 (blade 1, node 3), m
         11   -3.257E+01                                 F               0         Y-component position of node 4 (blade 1, node 3), m
         12    1.503E+02                                 F               0         Z-component position of node 4 (blade 1, node 3), m
         13    8.678E+00                                 F               0         X-component position of node 5 (blade 1, node 4), m
         14   -3.644E+01                                 F               0         Y-component position of node 5 (blade 1, node 4), m
         15    1.504E+02                                 F               0         Z-component position of node 5 (blade 1, node 4), m
         16    8.732E+00                                 F               0         X-component position of node 6 (blade 1, node 5), m
         17   -4.031E+01                                 F               0         Y-component position of node 6 (blade 1, node 5), m
         18    1.505E+02                                 F               0         Z-component position of node 6 (blade 1, node 5), m
         19    8.786E+00                                 F               0         X-component position of node 7 (blade 1, node 6), m
         20   -4.417E+01                                 F               0         Y-component position of node 7 (blade 1, node 6), m
         21    1.505E+02                                 F               0         Z-component position of node 7 (blade 1, node 6), m
         22    8.839E+00                                 F               0         X-component position of node 8 (blade 1, node 7), m
         23   -4.804E+01                                 F               0         Y-component position of node 8 (blade 1, node 7), m
         24    1.506E+02                                 F               0         Z-component position of node 8 (blade 1, node 7), m
         25    8.893E+00                                 F               0         X-component position of node 9 (blade 1, node 8), m
         26   -5.191E+01                                 F               0         Y-component position of node 9 (blade 1, node 8), m
         27    1.507E+02                                 F               0         Z-component position of node 9 (blade 1, node 8), m
         28    8.947E+00                                 F               0         X-component position of node 10 (blade 1, node 9), m
         29   -5.577E+01                                 F               0         Y-component position of node 10 (blade 1, node 9), m
         30    1.508E+02                                 F               0         Z-component position of node 10 (blade 1, node 9), m
         31    9.001E+00                                 F               0         X-component position of node 11 (blade 1, node 10), m
         32   -5.964E+01                                 F               0         Y-component position of node 11 (blade 1, node 10), m
         33    1.508E+02                                 F               0         Z-component position of node 11 (blade 1, node 10), m
         34    9.055E+00                                 F               0         X-component position of node 12 (blade 1, node 11), m
         35   -6.351E+01                                 F               0         Y-component position of node 12 (blade 1, node 11), m
         36    1.509E+02                                 F               0         Z-component position of node 12 (blade 1, node 11), m
         37    9.109E+00                                 F               0         X-component position of node 13 (blade 1, node 12), m
         38   -6.737E+01                                 F               0         Y-component position of node 13 (blade 1, node 12), m
         39    1.510E+02                                 F               0         Z-component position of node 13 (blade 1, node 12), m
         40    9.162E+00                                 F               0         X-component position of node 14 (blade 1, node 13), m
         41   -7.124E+01                                 F               0         Y-component position of node 14 (blade 1, node 13), m
         42    1.511E+02                                 F               0         Z-component position of node 14 (blade 1, node 13), m
         43    9.216E+00                                 F               0         X-component position of node 15 (blade 1, node 14), m
         44   -7.511E+01                                 F               0         Y-component position of node 15 (blade 1, node 14), m
         45    1.511E+02                                 F               0         Z-component position of node 15 (blade 1, node 14), m
         46    9.270E+00                                 F               0         X-component position of node 16 (blade 1, node 15), m
         47   -7.897E+01                                 F               0         Y-component position of node 16 (blade 1, node 15), m
         48    1.512E+02                                 F               0         Z-component position of node 16 (blade 1, node 15), m
         49    9.324E+00                                 F               0         X-component position of node 17 (blade 1, node 16), m
         50   -8.284E+01                                 F               0         Y-component position of node 17 (blade 1, node 16), m
         51    1.513E+02                                 F               0         Z-component position of node 17 (blade 1, node 16), m
         52    9.378E+00                                 F               0         X-component position of node 18 (blade 1, node 17), m
         53   -8.671E+01                                 F               0         Y-component position of node 18 (blade 1, node 17), m
         54    1.513E+02                                 F               0         Z-component position of node 18 (blade 1, node 17), m
         55    9.431E+00                                 F               0         X-component position of node 19 (blade 1, node 18), m
         56   -9.057E+01                                 F               0         Y-component position of node 19 (blade 1, node 18), m
         57    1.514E+02                                 F               0         Z-component position of node 19 (blade 1, node 18), m
         58    9.485E+00                                 F               0         X-component position of node 20 (blade 1, node 19), m
         59   -9.444E+01                                 F               0         Y-component position of node 20 (blade 1, node 19), m
         60    1.515E+02                                 F               0         Z-component position of node 20 (blade 1, node 19), m
         61    9.539E+00                                 F               0         X-component position of node 21 (blade 1, node 20), m
         62   -9.831E+01                                 F               0         Y-component position of node 21 (blade 1, node 20), m
         63    1.516E+02                                 F               0         Z-component position of node 21 (blade 1, node 20), m
         64    9.593E+00                                 F               0         X-component position of node 22 (blade 1, node 21), m
         65   -1.022E+02                                 F               0         Y-component position of node 22 (blade 1, node 21), m
         66    1.516E+02                                 F               0         Z-component position of node 22 (blade 1, node 21), m
         67    9.647E+00                                 F               0         X-component position of node 23 (blade 1, node 22), m
         68   -1.060E+02                                 F               0         Y-component position of node 23 (blade 1, node 22), m
         69    1.517E+02                                 F               0         Z-component position of node 23 (blade 1, node 22), m
         70    9.701E+00                                 F               0         X-component position of node 24 (blade 1, node 23), m
         71   -1.099E+02                                 F               0         Y-component position of node 24 (blade 1, node 23), m
         72    1.518E+02                                 F               0         Z-component position of node 24 (blade 1, node 23), m
         73    9.754E+00                                 F               0         X-component position of node 25 (blade 1, node 24), m
         74   -1.138E+02                                 F               0         Y-component position of node 25 (blade 1, node 24), m
         75    1.519E+02                                 F               0         Z-component position of node 25 (blade 1, node 24), m
         76    9.808E+00                                 F               0         X-component position of node 26 (blade 1, node 25), m
         77   -1.176E+02                                 F               0         Y-component position of node 26 (blade 1, node 25), m
         78    1.519E+02                                 F               0         Z-component position of node 26 (blade 1, node 25), m
         79    9.862E+00                                 F               0         X-component position of node 27 (blade 1, node 26), m
         80   -1.215E+02                                 F               0         Y-component position of node 27 (blade 1, node 26), m
         81    1.520E+02                                 F               0         Z-component position of node 27 (blade 1, node 26), m
         82    9.916E+00                                 F               0         X-component position of node 28 (blade 1, node 27), m
         83   -1.254E+02                                 F               0         Y-component position of node 28 (blade 1, node 27), m
         84    1.521E+02                                 F               0         Z-component position of node 28 (blade 1, node 27), m
         85    9.962E+00                                 F               0         X-component position of node 29 (blade 1, node 28), m
         86   -1.287E+02                                 F               0         Y-component position of node 29 (blade 1, node 28), m
         87    1.521E+02                                 F               0         Z-component position of node 29 (blade 1, node 28), m
         88    7.308E+00                                 F               0         X-component position of node 30 (blade 2, node 1), m
         89   -4.886E+00                                 F               0         Y-component position of node 30 (blade 2, node 1), m
         90    1.451E+02                                 F               0         Z-component position of node 30 (blade 2, node 1), m
         91    7.075E+00                                 F               0         X-component position of node 31 (blade 2, node 2), m
         92   -4.243E+00                                 F               0         Y-component position of node 31 (blade 2, node 2), m
         93    1.439E+02                                 F               0         Z-component position of node 31 (blade 2, node 2), m
         94    3.904E+00                                 F               0         X-component position of node 32 (blade 2, node 3), m
         95    4.498E+00                                 F               0         Y-component position of node 32 (blade 2, node 3), m
         96    1.284E+02                                 F               0         Z-component position of node 32 (blade 2, node 3), m
         97    3.228E+00                                 F               0         X-component position of node 33 (blade 2, node 4), m
         98    6.360E+00                                 F               0         Y-component position of node 33 (blade 2, node 4), m
         99    1.250E+02                                 F               0         Z-component position of node 33 (blade 2, node 4), m
        100    2.552E+00                                 F               0         X-component position of node 34 (blade 2, node 5), m
        101    8.223E+00                                 F               0         Y-component position of node 34 (blade 2, node 5), m
        102    1.217E+02                                 F               0         Z-component position of node 34 (blade 2, node 5), m
        103    1.877E+00                                 F               0         X-component position of node 35 (blade 2, node 6), m
        104    1.009E+01                                 F               0         Y-component position of node 35 (blade 2, node 6), m
        105    1.184E+02                                 F               0         Z-component position of node 35 (blade 2, node 6), m
        106    1.201E+00                                 F               0         X-component position of node 36 (blade 2, node 7), m
        107    1.195E+01                                 F               0         Y-component position of node 36 (blade 2, node 7), m
        108    1.151E+02                                 F               0         Z-component position of node 36 (blade 2, node 7), m
        109    5.254E-01                                 F               0         X-component position of node 37 (blade 2, node 8), m
        110    1.381E+01                                 F               0         Y-component position of node 37 (blade 2, node 8), m
        111    1.117E+02                                 F               0         Z-component position of node 37 (blade 2, node 8), m
        112   -1.503E-01                                 F               0         X-component position of node 38 (blade 2, node 9), m
        113    1.567E+01                                 F               0         Y-component position of node 38 (blade 2, node 9), m
        114    1.084E+02                                 F               0         Z-component position of node 38 (blade 2, node 9), m
        115   -8.259E-01                                 F               0         X-component position of node 39 (blade 2, node 10), m
        116    1.753E+01                                 F               0         Y-component position of node 39 (blade 2, node 10), m
        117    1.051E+02                                 F               0         Z-component position of node 39 (blade 2, node 10), m
        118   -1.501E+00                                 F               0         X-component position of node 40 (blade 2, node 11), m
        119    1.940E+01                                 F               0         Y-component position of node 40 (blade 2, node 11), m
        120    1.018E+02                                 F               0         Z-component position of node 40 (blade 2, node 11), m
        121   -2.177E+00                                 F               0         X-component position of node 41 (blade 2, node 12), m
        122    2.126E+01                                 F               0         Y-component position of node 41 (blade 2, node 12), m
        123    9.846E+01                                 F               0         Z-component position of node 41 (blade 2, node 12), m
        124   -2.853E+00                                 F               0         X-component position of node 42 (blade 2, node 13), m
        125    2.312E+01                                 F               0         Y-component position of node 42 (blade 2, node 13), m
        126    9.514E+01                                 F               0         Z-component position of node 42 (blade 2, node 13), m
        127   -3.528E+00                                 F               0         X-component position of node 43 (blade 2, node 14), m
        128    2.498E+01                                 F               0         Y-component position of node 43 (blade 2, node 14), m
        129    9.182E+01                                 F               0         Z-component position of node 43 (blade 2, node 14), m
        130   -4.204E+00                                 F               0         X-component position of node 44 (blade 2, node 15), m
        131    2.685E+01                                 F               0         Y-component position of node 44 (blade 2, node 15), m
        132    8.850E+01                                 F               0         Z-component position of node 44 (blade 2, node 15), m
        133   -4.880E+00                                 F               0         X-component position of node 45 (blade 2, node 16), m
        134    2.871E+01                                 F               0         Y-component position of node 45 (blade 2, node 16), m
        135    8.518E+01                                 F               0         Z-component position of node 45 (blade 2, node 16), m
        136   -5.555E+00                                 F               0         X-component position of node 46 (blade 2, node 17), m
        137    3.057E+01                                 F               0         Y-component position of node 46 (blade 2, node 17), m
        138    8.185E+01                                 F               0         Z-component position of node 46 (blade 2, node 17), m
        139   -6.231E+00                                 F               0         X-component position of node 47 (blade 2, node 18), m
        140    3.243E+01                                 F               0         Y-component position of node 47 (blade 2, node 18), m
        141    7.853E+01                                 F               0         Z-component position of node 47 (blade 2, node 18), m
        142   -6.907E+00                                 F               0         X-component position of node 48 (blade 2, node 19), m
        143    3.430E+01                                 F               0         Y-component position of node 48 (blade 2, node 19), m
        144    7.521E+01                                 F               0         Z-component position of node 48 (blade 2, node 19), m
        145   -7.582E+00                                 F               0         X-component position of node 49 (blade 2, node 20), m
        146    3.616E+01                                 F               0         Y-component position of node 49 (blade 2, node 20), m
        147    7.189E+01                                 F               0         Z-component position of node 49 (blade 2, node 20), m
        148   -8.258E+00                                 F               0         X-component position of node 50 (blade 2, node 21), m
        149    3.802E+01                                 F               0         Y-component position of node 50 (blade 2, node 21), m
        150    6.857E+01                                 F               0         Z-component position of node 50 (blade 2, node 21), m
        151   -8.934E+00                                 F               0         X-component position of node 51 (blade 2, node 22), m
        152    3.988E+01                                 F               0         Y-component position of node 51 (blade 2, node 22), m
        153    6.524E+01                                 F               0         Z-component position of node 51 (blade 2, node 22), m
        154   -9.609E+00                                 F               0         X-component position of node 52 (blade 2, node 23), m
        155    4.175E+01                                 F               0         Y-component position of node 52 (blade 2, node 23), m
        156    6.192E+01                                 F               0         Z-component position of node 52 (blade 2, node 23), m
        157   -1.028E+01                                 F               0         X-component position of node 53 (blade 2, node 24), m
        158    4.361E+01                                 F               0         Y-component position of node 53 (blade 2, node 24), m
        159    5.860E+01                                 F               0         Z-component position of node 53 (blade 2, node 24), m
        160   -1.096E+01                                 F               0         X-component position of node 54 (blade 2, node 25), m
        161    4.547E+01                                 F               0         Y-component position of node 54 (blade 2, node 25), m
        162    5.528E+01                                 F               0         Z-component position of node 54 (blade 2, node 25), m
        163   -1.164E+01                                 F               0         X-component position of node 55 (blade 2, node 26), m
        164    4.733E+01                                 F               0         Y-component position of node 55 (blade 2, node 26), m
        165    5.196E+01                                 F               0         Z-component position of node 55 (blade 2, node 26), m
        166   -1.231E+01                                 F               0         X-component position of node 56 (blade 2, node 27), m
        167    4.920E+01                                 F               0         Y-component position of node 56 (blade 2, node 27), m
        168    4.864E+01                                 F               0         Z-component position of node 56 (blade 2, node 27), m
        169   -1.288E+01                                 F               0         X-component position of node 57 (blade 2, node 28), m
        170    5.077E+01                                 F               0         Y-component position of node 57 (blade 2, node 28), m
        171    4.582E+01                                 F               0         Z-component position of node 57 (blade 2, node 28), m
        172    9.166E+00                                 F               0         X-component position of node 58 (blade 3, node 1), m
        173   -4.683E+00                                 F               0         Y-component position of node 58 (blade 3, node 1), m
        174    1.545E+02                                 F               0         Z-component position of node 58 (blade 3, node 1), m
        175    9.381E+00                                 F               0         X-component position of node 59 (blade 3, node 2), m
        176   -3.991E+00                                 F               0         Y-component position of node 59 (blade 3, node 2), m
        177    1.556E+02                                 F               0         Z-component position of node 59 (blade 3, node 2), m
        178    1.230E+01                                 F               0         X-component position of node 60 (blade 3, node 3), m
        179    5.416E+00                                 F               0         Y-component position of node 60 (blade 3, node 3), m
        180    1.709E+02                                 F               0         Z-component position of node 60 (blade 3, node 3), m
        181    1.292E+01                                 F               0         X-component position of node 61 (blade 3, node 4), m
        182    7.420E+00                                 F               0         Y-component position of node 61 (blade 3, node 4), m
        183    1.741E+02                                 F               0         Z-component position of node 61 (blade 3, node 4), m
        184    1.354E+01                                 F               0         X-component position of node 62 (blade 3, node 5), m
        185    9.424E+00                                 F               0         Y-component position of node 62 (blade 3, node 5), m
        186    1.774E+02                                 F               0         Z-component position of node 62 (blade 3, node 5), m
        187    1.416E+01                                 F               0         X-component position of node 63 (blade 3, node 6), m
        188    1.143E+01                                 F               0         Y-component position of node 63 (blade 3, node 6), m
        189    1.806E+02                                 F               0         Z-component position of node 63 (blade 3, node 6), m
        190    1.479E+01                                 F               0         X-component position of node 64 (blade 3, node 7), m
        191    1.343E+01                                 F               0         Y-component position of node 64 (blade 3, node 7), m
        192    1.839E+02                                 F               0         Z-component position of node 64 (blade 3, node 7), m
        193    1.541E+01                                 F               0         X-component position of node 65 (blade 3, node 8), m
        194    1.544E+01                                 F               0         Y-component position of node 65 (blade 3, node 8), m
        195    1.871E+02                                 F               0         Z-component position of node 65 (blade 3, node 8), m
        196    1.603E+01                                 F               0         X-component position of node 66 (blade 3, node 9), m
        197    1.744E+01                                 F               0         Y-component position of node 66 (blade 3, node 9), m
        198    1.904E+02                                 F               0         Z-component position of node 66 (blade 3, node 9), m
        199    1.665E+01                                 F               0         X-component position of node 67 (blade 3, node 10), m
        200    1.945E+01                                 F               0         Y-component position of node 67 (blade 3, node 10), m
        201    1.936E+02                                 F               0         Z-component position of node 67 (blade 3, node 10), m
        202    1.727E+01                                 F               0         X-component position of node 68 (blade 3, node 11), m
        203    2.145E+01                                 F               0         Y-component position of node 68 (blade 3, node 11), m
        204    1.969E+02                                 F               0         Z-component position of node 68 (blade 3, node 11), m
        205    1.790E+01                                 F               0         X-component position of node 69 (blade 3, node 12), m
        206    2.345E+01                                 F               0         Y-component position of node 69 (blade 3, node 12), m
        207    2.001E+02                                 F               0         Z-component position of node 69 (blade 3, node 12), m
        208    1.852E+01                                 F               0         X-component position of node 70 (blade 3, node 13), m
        209    2.546E+01                                 F               0         Y-component position of node 70 (blade 3, node 13), m
        210    2.034E+02                                 F               0         Z-component position of node 70 (blade 3, node 13), m
        211    1.914E+01                                 F               0         X-component position of node 71 (blade 3, node 14), m