
Linearized model: Predictions were generated on 12-Jan-2024 at 08:43:17 using OpenFAST, compiled as a 64-bit application using single precision at commit v3.5.1
 linked with  NWTC Subroutine Library; ElastoDyn; InflowWind; AeroDyn; ServoDyn; HydroDyn; MAP++ (<1.20.10>, <Oct-20-2023>)

Description from the FAST input file: CCT-9 Campign 4 model. Input files to be run with OpenFAST 3.5.0. GitHub branch from Lu Wang (https://github.com/luwang00/openfast/tree/dev) compiled on March 7, 2023.

Simulation information:
   Simulation time:                   505.2000 s
   Rotor Speed:                         0.7074 rad/s
   Azimuth:                             0.8128 rad
   Wind Speed:                          8.0000 m/s
   Number of continuous states:        22
   Number of discrete states:           0
   Number of constraint states:         0
   Number of inputs:                 3988
   Number of outputs:                  58
   Jacobians included in this file?    No

Order of continuous states:
   Row/Column Operating Point                     Rotating Frame? Derivative Order Description
   ---------- ---------------                     --------------- ---------------- -----------
          1    5.759E+00                                 F               2         ED Platform horizontal surge translation DOF (internal DOF index = DOF_Sg), m
          2   -4.695E-01                                 F               2         ED Platform horizontal sway translation DOF (internal DOF index = DOF_Sw), m
          3   -1.110E-01                                 F               2         ED Platform vertical heave translation DOF (internal DOF index = DOF_Hv), m
          4    4.628E-02                                 F               2         ED Platform roll tilt rotation DOF (internal DOF index = DOF_R), rad
          5    8.560E-02                                 F               2         ED Platform pitch tilt rotation DOF (internal DOF index = DOF_P), rad
          6    2.794E-03                                 F               2         ED Platform yaw rotation DOF (internal DOF index = DOF_Y), rad
          7    4.674E-01                                 F               2         ED 1st tower fore-aft bending mode DOF (internal DOF index = DOF_TFA1), m
          8    1.812E-01                                 F               2         ED 1st tower side-to-side bending mode DOF (internal DOF index = DOF_TSS1), m
          9    1.461E-03                                 F               2         ED 2nd tower fore-aft bending mode DOF (internal DOF index = DOF_TFA2), m
         10    8.030E-05                                 F               2         ED 2nd tower side-to-side bending mode DOF (internal DOF index = DOF_TSS2), m
         11    5.525E+00                                 F               2         ED Variable speed generator DOF (internal DOF index = DOF_GeAz), rad
         12   -5.155E-03                                 F               2         ED First time derivative of Platform horizontal surge translation DOF (internal DOF index = DOF_Sg), m/s
         13    1.627E-03                                 F               2         ED First time derivative of Platform horizontal sway translation DOF (internal DOF index = DOF_Sw), m/s
         14    2.746E-03                                 F               2         ED First time derivative of Platform vertical heave translation DOF (internal DOF index = DOF_Hv), m/s
         15   -2.877E-04                                 F               2         ED First time derivative of Platform roll tilt rotation DOF (internal DOF index = DOF_R), rad/s
         16    2.145E-06                                 F               2         ED First time derivative of Platform pitch tilt rotation DOF (internal DOF index = DOF_P), rad/s
         17    5.081E-05                                 F               2         ED First time derivative of Platform yaw rotation DOF (internal DOF index = DOF_Y), rad/s
         18    1.975E-04                                 F               2         ED First time derivative of 1st tower fore-aft bending mode DOF (internal DOF index = DOF_TFA1), m/s
         19   -1.486E-03                                 F               2         ED First time derivative of 1st tower side-to-side bending mode DOF (internal DOF index = DOF_TSS1), m/s
         20   -1.411E-06                                 F               2         ED First time derivative of 2nd tower fore-aft bending mode DOF (internal DOF index = DOF_TFA2), m/s
         21   -1.030E-06                                 F               2         ED First time derivative of 2nd tower side-to-side bending mode DOF (internal DOF index = DOF_TSS2), m/s
         22    7.074E-01                                 F               2         ED First time derivative of Variable speed generator DOF (internal DOF index = DOF_GeAz), rad/s

Order of continuous state derivatives:
   Row/Column Operating Point                     Rotating Frame? Derivative Order Description
   ---------- ---------------                     --------------- ---------------- -----------
          1   -5.155E-03                                 F               2         First time derivative of ED Platform horizontal surge translation DOF (internal DOF index = DOF_Sg), m/s
          2    1.627E-03                                 F               2         First time derivative of ED Platform horizontal sway translation DOF (internal DOF index = DOF_Sw), m/s
          3    2.746E-03                                 F               2         First time derivative of ED Platform vertical heave translation DOF (internal DOF index = DOF_Hv), m/s
          4   -2.877E-04                                 F               2         First time derivative of ED Platform roll tilt rotation DOF (internal DOF index = DOF_R), rad/s
          5    2.145E-06                                 F               2         First time derivative of ED Platform pitch tilt rotation DOF (internal DOF index = DOF_P), rad/s
          6    5.081E-05                                 F               2         First time derivative of ED Platform yaw rotation DOF (internal DOF index = DOF_Y), rad/s
          7    1.975E-04                                 F               2         First time derivative of ED 1st tower fore-aft bending mode DOF (internal DOF index = DOF_TFA1), m/s
          8   -1.486E-03                                 F               2         First time derivative of ED 1st tower side-to-side bending mode DOF (internal DOF index = DOF_TSS1), m/s
          9   -1.411E-06                                 F               2         First time derivative of ED 2nd tower fore-aft bending mode DOF (internal DOF index = DOF_TFA2), m/s
         10   -1.030E-06                                 F               2         First time derivative of ED 2nd tower side-to-side bending mode DOF (internal DOF index = DOF_TSS2), m/s
         11    7.074E-01                                 F               2         First time derivative of ED Variable speed generator DOF (internal DOF index = DOF_GeAz), rad/s
         12   -1.686E-04                                 F               2         First time derivative of ED First time derivative of Platform horizontal surge translation DOF (internal DOF index = DOF_Sg), m/s/s
         13   -2.467E-04                                 F               2         First time derivative of ED First time derivative of Platform horizontal sway translation DOF (internal DOF index = DOF_Sw), m/s/s
         14    5.726E-04                                 F               2         First time derivative of ED First time derivative of Platform vertical heave translation DOF (internal DOF index = DOF_Hv), m/s/s
         15   -2.410E-05                                 F               2         First time derivative of ED First time derivative of Platform roll tilt rotation DOF (internal DOF index = DOF_R), rad/s/s
         16    9.167E-07                                 F               2         First time derivative of ED First time derivative of Platform pitch tilt rotation DOF (internal DOF index = DOF_P), rad/s/s
         17   -2.289E-06                                 F               2         First time derivative of ED First time derivative of Platform yaw rotation DOF (internal DOF index = DOF_Y), rad/s/s
         18    1.075E-03                                 F               2         First time derivative of ED First time derivative of 1st tower fore-aft bending mode DOF (internal DOF index = DOF_TFA1), m/s/s
         19    3.018E-05                                 F               2         First time derivative of ED First time derivative of 1st tower side-to-side bending mode DOF (internal DOF index = DOF_TSS1), m/s/s
         20   -3.406E-06                                 F               2         First time derivative of ED First time derivative of 2nd tower fore-aft bending mode DOF (internal DOF index = DOF_TFA2), m/s/s
         21    9.410E-07                                 F               2         First time derivative of ED First time derivative of 2nd tower side-to-side bending mode DOF (internal DOF index = DOF_TSS2), m/s/s
         22    1.607E-05                                 F               2         First time derivative of ED First time derivative of Variable speed generator DOF (internal DOF index = DOF_GeAz), rad/s/s

Order of inputs:
     Column   Operating Point                     Rotating Frame? Derivative Order Description
   ---------- ---------------                     --------------- ---------------- -----------
          1   -1.080E+01                                 F               0         IfW X-component position of node 1 (hub), m
          2    0.000E+00                                 F               0         IfW Y-component position of node 1 (hub), m
          3    1.497E+02                                 F               0         IfW Z-component position of node 1 (hub), m
          4    9.021E+00                                 F               0         IfW X-component position of node 2 (blade 1, node 1), m
          5   -1.180E+01                                 F               0         IfW Y-component position of node 2 (blade 1, node 1), m
          6    1.534E+02                                 F               0         IfW Z-component position of node 2 (blade 1, node 1), m
          7    9.200E+00                                 F               0         IfW X-component position of node 3 (blade 1, node 2), m
          8   -1.281E+01                                 F               0         IfW Y-component position of node 3 (blade 1, node 2), m
          9    1.542E+02                                 F               0         IfW Z-component position of node 3 (blade 1, node 2), m
         10    1.163E+01                                 F               0         IfW X-component position of node 4 (blade 1, node 3), m
         11   -2.657E+01                                 F               0         IfW Y-component position of node 4 (blade 1, node 3), m
         12    1.658E+02                                 F               0         IfW Z-component position of node 4 (blade 1, node 3), m
         13    1.215E+01                                 F               0         IfW X-component position of node 5 (blade 1, node 4), m
         14   -2.950E+01                                 F               0         IfW Y-component position of node 5 (blade 1, node 4), m
         15    1.683E+02                                 F               0         IfW Z-component position of node 5 (blade 1, node 4), m
         16    1.267E+01                                 F               0         IfW X-component position of node 6 (blade 1, node 5), m
         17   -3.243E+01                                 F               0         IfW Y-component position of node 6 (blade 1, node 5), m
         18    1.708E+02                                 F               0         IfW Z-component position of node 6 (blade 1, node 5), m
         19    1.319E+01                                 F               0         IfW X-component position of node 7 (blade 1, node 6), m
         20   -3.536E+01                                 F               0         IfW Y-component position of node 7 (blade 1, node 6), m
         21    1.732E+02                                 F               0         IfW Z-component position of node 7 (blade 1, node 6), m
         22    1.370E+01                                 F               0         IfW X-component position of node 8 (blade 1, node 7), m
         23   -3.829E+01                                 F               0         IfW Y-component position of node 8 (blade 1, node 7), m
         24    1.757E+02                                 F               0         IfW Z-component position of node 8 (blade 1, node 7), m
         25    1.422E+01                                 F               0         IfW X-component position of node 9 (blade 1, node 8), m
         26   -4.122E+01                                 F               0         IfW Y-component position of node 9 (blade 1, node 8), m
         27    1.782E+02                                 F               0         IfW Z-component position of node 9 (blade 1, node 8), m
         28    1.474E+01                                 F               0         IfW X-component position of node 10 (blade 1, node 9), m
         29   -4.416E+01                                 F               0         IfW Y-component position of node 10 (blade 1, node 9), m
         30    1.806E+02                                 F               0         IfW Z-component position of node 10 (blade 1, node 9), m
         31    1.526E+01                                 F               0         IfW X-component position of node 11 (blade 1, node 10), m
         32   -4.709E+01                                 F               0         IfW Y-component position of node 11 (blade 1, node 10), m
         33    1.831E+02                                 F               0         IfW Z-component position of node 11 (blade 1, node 10), m
         34    1.578E+01                                 F               0         IfW X-component position of node 12 (blade 1, node 11), m
         35   -5.002E+01                                 F               0         IfW Y-component position of node 12 (blade 1, node 11), m
         36    1.856E+02                                 F               0         IfW Z-component position of node 12 (blade 1, node 11), m
         37    1.629E+01                                 F               0         IfW X-component position of node 13 (blade 1, node 12), m
         38   -5.295E+01                                 F               0         IfW Y-component position of node 13 (blade 1, node 12), m
         39    1.881E+02                                 F               0         IfW Z-component position of node 13 (blade 1, node 12), m
         40    1.681E+01                                 F               0         IfW X-component position of node 14 (blade 1, node 13), m
         41   -5.588E+01                                 F               0         IfW Y-component position of node 14 (blade 1, node 13), m
         42    1.905E+02                                 F               0         IfW Z-component position of node 14 (blade 1, node 13), m
         43    1.733E+01                                 F               0         IfW X-component position of node 15 (blade 1, node 14), m
         44   -5.881E+01                                 F               0         IfW Y-component position of node 15 (blade 1, node 14), m
         45    1.930E+02                                 F               0         IfW Z-component position of node 15 (blade 1, node 14), m
         46    1.785E+01                                 F               0         IfW X-component position of node 16 (blade 1, node 15), m
         47   -6.174E+01                                 F               0         IfW Y-component position of node 16 (blade 1, node 15), m
         48    1.955E+02                                 F               0         IfW Z-component position of node 16 (blade 1, node 15), m
         49    1.837E+01                                 F               0         IfW X-component position of node 17 (blade 1, node 16), m
         50   -6.468E+01                                 F               0         IfW Y-component position of node 17 (blade 1, node 16), m
         51    1.979E+02                                 F               0         IfW Z-component position of node 17 (blade 1, node 16), m
         52    1.888E+01                                 F               0         IfW X-component position of node 18 (blade 1, node 17), m
         53   -6.761E+01                                 F               0         IfW Y-component position of node 18 (blade 1, node 17), m
         54    2.004E+02                                 F               0         IfW Z-component position of node 18 (blade 1, node 17), m
         55    1.940E+01                                 F               0         IfW X-component position of node 19 (blade 1, node 18), m
         56   -7.054E+01                                 F               0         IfW Y-component position of node 19 (blade 1, node 18), m
         57    2.029E+02                                 F               0         IfW Z-component position of node 19 (blade 1, node 18), m
         58    1.992E+01                                 F               0         IfW X-component position of node 20 (blade 1, node 19), m
         59   -7.347E+01                                 F               0         IfW Y-component position of node 20 (blade 1, node 19), m
         60    2.053E+02                                 F               0         IfW Z-component position of node 20 (blade 1, node 19), m
         61    2.044E+01                                 F               0         IfW X-component position of node 21 (blade 1, node 20), m
         62   -7.640E+01                                 F               0         IfW Y-component position of node 21 (blade 1, node 20), m
         63    2.078E+02                                 F               0         IfW Z-component position of node 21 (blade 1, node 20), m
         64    2.096E+01                                 F               0         IfW X-component position of node 22 (blade 1, node 21), m
         65   -7.933E+01                                 F               0         IfW Y-component position of node 22 (blade 1, node 21), m
         66    2.103E+02                                 F               0         IfW Z-component position of node 22 (blade 1, node 21), m
         67    2.147E+01                                 F               0         IfW X-component position of node 23 (blade 1, node 22), m
         68   -8.226E+01                                 F               0         IfW Y-component position of node 23 (blade 1, node 22), m
         69    2.127E+02                                 F               0         IfW Z-component position of node 23 (blade 1, node 22), m
         70    2.199E+01                                 F               0         IfW X-component position of node 24 (blade 1, node 23), m
         71   -8.519E+01                                 F               0         IfW Y-component position of node 24 (blade 1, node 23), m
         72    2.152E+02                                 F               0         IfW Z-component position of node 24 (blade 1, node 23), m
         73    2.251E+01                                 F               0         IfW X-component position of node 25 (blade 1, node 24), m
         74   -8.813E+01                                 F               0         IfW Y-component position of node 25 (blade 1, node 24), m
         75    2.177E+02                                 F               0         IfW Z-component position of node 25 (blade 1, node 24), m
         76    2.303E+01                                 F               0         IfW X-component position of node 26 (blade 1, node 25), m
         77   -9.106E+01                                 F               0         IfW Y-component position of node 26 (blade 1, node 25), m
         78    2.202E+02                                 F               0         IfW Z-component position of node 26 (blade 1, node 25), m
         79    2.355E+01                                 F               0         IfW X-component position of node 27 (blade 1, node 26), m
         80   -9.399E+01                                 F               0         IfW Y-component position of node 27 (blade 1, node 26), m
         81    2.226E+02                                 F               0         IfW Z-component position of node 27 (blade 1, node 26), m
         82    2.406E+01                                 F               0         IfW X-component position of node 28 (blade 1, node 27), m
         83   -9.692E+01                                 F               0         IfW Y-component position of node 28 (blade 1, node 27), m
         84    2.251E+02                                 F               0         IfW Z-component position of node 28 (blade 1, node 27), m
         85    2.450E+01                                 F               0         IfW X-component position of node 29 (blade 1, node 28), m
         86   -9.941E+01                                 F               0         IfW Y-component position of node 29 (blade 1, node 28), m
         87    2.272E+02                                 F               0         IfW Z-component position of node 29 (blade 1, node 28), m
         88    7.234E+00                                 F               0         IfW X-component position of node 30 (blade 2, node 1), m
         89   -8.629E+00                                 F               0         IfW Y-component position of node 30 (blade 2, node 1), m
         90    1.445E+02                                 F               0         IfW Z-component position of node 30 (blade 2, node 1), m
         91    6.982E+00                                 F               0         IfW X-component position of node 31 (blade 2, node 2), m
         92   -8.878E+00                                 F               0         IfW Y-component position of node 31 (blade 2, node 2), m
         93    1.432E+02                                 F               0         IfW Z-component position of node 31 (blade 2, node 2), m
         94    3.556E+00                                 F               0         IfW X-component position of node 32 (blade 2, node 3), m
         95   -1.225E+01                                 F               0         IfW Y-component position of node 32 (blade 2, node 3), m
         96    1.257E+02                                 F               0         IfW Z-component position of node 32 (blade 2, node 3), m
         97    2.827E+00                                 F               0         IfW X-component position of node 33 (blade 2, node 4), m
         98   -1.297E+01                                 F               0         IfW Y-component position of node 33 (blade 2, node 4), m
         99    1.220E+02                                 F               0         IfW Z-component position of node 33 (blade 2, node 4), m
        100    2.097E+00                                 F               0         IfW X-component position of node 34 (blade 2, node 5), m
        101   -1.369E+01                                 F               0         IfW Y-component position of node 34 (blade 2, node 5), m
        102    1.183E+02                                 F               0         IfW Z-component position of node 34 (blade 2, node 5), m
        103    1.367E+00                                 F               0         IfW X-component position of node 35 (blade 2, node 6), m
        104   -1.441E+01                                 F               0         IfW Y-component position of node 35 (blade 2, node 6), m
        105    1.145E+02                                 F               0         IfW Z-component position of node 35 (blade 2, node 6), m
        106    6.370E-01                                 F               0         IfW X-component position of node 36 (blade 2, node 7), m
        107   -1.513E+01                                 F               0         IfW Y-component position of node 36 (blade 2, node 7), m
        108    1.108E+02                                 F               0         IfW Z-component position of node 36 (blade 2, node 7), m
        109   -9.299E-02                                 F               0         IfW X-component position of node 37 (blade 2, node 8), m
        110   -1.585E+01                                 F               0         IfW Y-component position of node 37 (blade 2, node 8), m
        111    1.071E+02                                 F               0         IfW Z-component position of node 37 (blade 2, node 8), m
        112   -8.228E-01                                 F               0         IfW X-component position of node 38 (blade 2, node 9), m
        113   -1.657E+01                                 F               0         IfW Y-component position of node 38 (blade 2, node 9), m
        114    1.033E+02                                 F               0         IfW Z-component position of node 38 (blade 2, node 9), m
        115   -1.553E+00                                 F               0         IfW X-component position of node 39 (blade 2, node 10), m
        116   -1.729E+01                                 F               0         IfW Y-component position of node 39 (blade 2, node 10), m
        117    9.961E+01                                 F               0         IfW Z-component position of node 39 (blade 2, node 10), m
        118   -2.283E+00                                 F               0         IfW X-component position of node 40 (blade 2, node 11), m
        119   -1.801E+01                                 F               0         IfW Y-component position of node 40 (blade 2, node 11), m
        120    9.588E+01                                 F               0         IfW Z-component position of node 40 (blade 2, node 11), m
        121   -3.013E+00                                 F               0         IfW X-component position of node 41 (blade 2, node 12), m
        122   -1.873E+01                                 F               0         IfW Y-component position of node 41 (blade 2, node 12), m
        123    9.215E+01                                 F               0         IfW Z-component position of node 41 (blade 2, node 12), m
        124   -3.742E+00                                 F               0         IfW X-component position of node 42 (blade 2, node 13), m
        125   -1.944E+01                                 F               0         IfW Y-component position of node 42 (blade 2, node 13), m
        126    8.842E+01                                 F               0         IfW Z-component position of node 42 (blade 2, node 13), m
        127   -4.472E+00                                 F               0         IfW X-component position of node 43 (blade 2, node 14), m
        128   -2.016E+01                                 F               0         IfW Y-component position of node 43 (blade 2, node 14), m
        129    8.469E+01                                 F               0         IfW Z-component position of node 43 (blade 2, node 14), m
        130   -5.202E+00                                 F               0         IfW X-component position of node 44 (blade 2, node 15), m
        131   -2.088E+01                                 F               0         IfW Y-component position of node 44 (blade 2, node 15), m
        132    8.096E+01                                 F               0         IfW Z-component position of node 44 (blade 2, node 15), m
        133   -5.932E+00                                 F               0         IfW X-component position of node 45 (blade 2, node 16), m
        134   -2.160E+01                                 F               0         IfW Y-component position of node 45 (blade 2, node 16), m
        135    7.723E+01                                 F               0         IfW Z-component position of node 45 (blade 2, node 16), m
        136   -6.662E+00                                 F               0         IfW X-component position of node 46 (blade 2, node 17), m
        137   -2.232E+01                                 F               0         IfW Y-component position of node 46 (blade 2, node 17), m
        138    7.350E+01                                 F               0         IfW Z-component position of node 46 (blade 2, node 17), m
        139   -7.392E+00                                 F               0         IfW X-component position of node 47 (blade 2, node 18), m
        140   -2.304E+01                                 F               0         IfW Y-component position of node 47 (blade 2, node 18), m
        141    6.977E+01                                 F               0         IfW Z-component position of node 47 (blade 2, node 18), m
        142   -8.122E+00                                 F               0         IfW X-component position of node 48 (blade 2, node 19), m
        143   -2.376E+01                                 F               0         IfW Y-component position of node 48 (blade 2, node 19), m
        144    6.604E+01                                 F               0         IfW Z-component position of node 48 (blade 2, node 19), m