
Linearized model: Predictions were generated on 12-Jan-2024 at 08:43:17 using OpenFAST, compiled as a 64-bit application using single precision at commit v3.5.1
 linked with  NWTC Subroutine Library; ElastoDyn; InflowWind; AeroDyn; ServoDyn; HydroDyn; MAP++ (<1.20.10>, <Oct-20-2023>)

Description from the FAST input file: CCT-9 Campign 4 model. Input files to be run with OpenFAST 3.5.0. GitHub branch from Lu Wang (https://github.com/luwang00/openfast/tree/dev) compiled on March 7, 2023.

Simulation information:
   Simulation time:                   502.7250 s
   Rotor Speed:                         0.7076 rad/s
   Azimuth:                             5.3450 rad
   Wind Speed:                          8.0000 m/s
   Number of continuous states:        22
   Number of discrete states:           0
   Number of constraint states:         0
   Number of inputs:                 3988
   Number of outputs:                  58
   Jacobians included in this file?    No

Order of continuous states:
   Row/Column Operating Point                     Rotating Frame? Derivative Order Description
   ---------- ---------------                     --------------- ---------------- -----------
          1    5.771E+00                                 F               2         ED Platform horizontal surge translation DOF (internal DOF index = DOF_Sg), m
          2   -4.739E-01                                 F               2         ED Platform horizontal sway translation DOF (internal DOF index = DOF_Sw), m
          3   -1.156E-01                                 F               2         ED Platform vertical heave translation DOF (internal DOF index = DOF_Hv), m
          4    4.687E-02                                 F               2         ED Platform roll tilt rotation DOF (internal DOF index = DOF_R), rad
          5    8.561E-02                                 F               2         ED Platform pitch tilt rotation DOF (internal DOF index = DOF_P), rad
          6    2.668E-03                                 F               2         ED Platform yaw rotation DOF (internal DOF index = DOF_Y), rad
          7    4.673E-01                                 F               2         ED 1st tower fore-aft bending mode DOF (internal DOF index = DOF_TFA1), m
          8    1.846E-01                                 F               2         ED 1st tower side-to-side bending mode DOF (internal DOF index = DOF_TSS1), m
          9    1.463E-03                                 F               2         ED 2nd tower fore-aft bending mode DOF (internal DOF index = DOF_TFA2), m
         10    8.215E-05                                 F               2         ED 2nd tower side-to-side bending mode DOF (internal DOF index = DOF_TSS2), m
         11    3.774E+00                                 F               2         ED Variable speed generator DOF (internal DOF index = DOF_GeAz), rad
         12   -4.788E-03                                 F               2         ED First time derivative of Platform horizontal surge translation DOF (internal DOF index = DOF_Sg), m/s
         13    1.804E-03                                 F               2         ED First time derivative of Platform horizontal sway translation DOF (internal DOF index = DOF_Sw), m/s
         14    8.874E-04                                 F               2         ED First time derivative of Platform vertical heave translation DOF (internal DOF index = DOF_Hv), m/s
         15   -1.722E-04                                 F               2         ED First time derivative of Platform roll tilt rotation DOF (internal DOF index = DOF_R), rad/s
         16   -9.856E-06                                 F               2         ED First time derivative of Platform pitch tilt rotation DOF (internal DOF index = DOF_P), rad/s
         17    4.998E-05                                 F               2         ED First time derivative of Platform yaw rotation DOF (internal DOF index = DOF_Y), rad/s
         18    6.635E-04                                 F               2         ED First time derivative of 1st tower fore-aft bending mode DOF (internal DOF index = DOF_TFA1), m/s
         19   -1.397E-03                                 F               2         ED First time derivative of 1st tower side-to-side bending mode DOF (internal DOF index = DOF_TSS1), m/s
         20   -3.946E-06                                 F               2         ED First time derivative of 2nd tower fore-aft bending mode DOF (internal DOF index = DOF_TFA2), m/s
         21   -1.427E-07                                 F               2         ED First time derivative of 2nd tower side-to-side bending mode DOF (internal DOF index = DOF_TSS2), m/s
         22    7.076E-01                                 F               2         ED First time derivative of Variable speed generator DOF (internal DOF index = DOF_GeAz), rad/s

Order of continuous state derivatives:
   Row/Column Operating Point                     Rotating Frame? Derivative Order Description
   ---------- ---------------                     --------------- ---------------- -----------
          1   -4.788E-03                                 F               2         First time derivative of ED Platform horizontal surge translation DOF (internal DOF index = DOF_Sg), m/s
          2    1.804E-03                                 F               2         First time derivative of ED Platform horizontal sway translation DOF (internal DOF index = DOF_Sw), m/s
          3    8.874E-04                                 F               2         First time derivative of ED Platform vertical heave translation DOF (internal DOF index = DOF_Hv), m/s
          4   -1.722E-04                                 F               2         First time derivative of ED Platform roll tilt rotation DOF (internal DOF index = DOF_R), rad/s
          5   -9.856E-06                                 F               2         First time derivative of ED Platform pitch tilt rotation DOF (internal DOF index = DOF_P), rad/s
          6    4.998E-05                                 F               2         First time derivative of ED Platform yaw rotation DOF (internal DOF index = DOF_Y), rad/s
          7    6.635E-04                                 F               2         First time derivative of ED 1st tower fore-aft bending mode DOF (internal DOF index = DOF_TFA1), m/s
          8   -1.397E-03                                 F               2         First time derivative of ED 1st tower side-to-side bending mode DOF (internal DOF index = DOF_TSS1), m/s
          9   -3.946E-06                                 F               2         First time derivative of ED 2nd tower fore-aft bending mode DOF (internal DOF index = DOF_TFA2), m/s
         10   -1.427E-07                                 F               2         First time derivative of ED 2nd tower side-to-side bending mode DOF (internal DOF index = DOF_TSS2), m/s
         11    7.076E-01                                 F               2         First time derivative of ED Variable speed generator DOF (internal DOF index = DOF_GeAz), rad/s
         12   -2.700E-04                                 F               2         First time derivative of ED First time derivative of Platform horizontal surge translation DOF (internal DOF index = DOF_Sg), m/s/s
         13    6.338E-06                                 F               2         First time derivative of ED First time derivative of Platform horizontal sway translation DOF (internal DOF index = DOF_Sw), m/s/s
         14    8.274E-04                                 F               2         First time derivative of ED First time derivative of Platform vertical heave translation DOF (internal DOF index = DOF_Hv), m/s/s
         15   -6.134E-05                                 F               2         First time derivative of ED First time derivative of Platform roll tilt rotation DOF (internal DOF index = DOF_R), rad/s/s
         16   -5.064E-07                                 F               2         First time derivative of ED First time derivative of Platform pitch tilt rotation DOF (internal DOF index = DOF_P), rad/s/s
         17    1.300E-06                                 F               2         First time derivative of ED First time derivative of Platform yaw rotation DOF (internal DOF index = DOF_Y), rad/s/s
         18    3.675E-04                                 F               2         First time derivative of ED First time derivative of 1st tower fore-aft bending mode DOF (internal DOF index = DOF_TFA1), m/s/s
         19    1.364E-04                                 F               2         First time derivative of ED First time derivative of 1st tower side-to-side bending mode DOF (internal DOF index = DOF_TSS1), m/s/s
         20   -1.670E-06                                 F               2         First time derivative of ED First time derivative of 2nd tower fore-aft bending mode DOF (internal DOF index = DOF_TFA2), m/s/s
         21    7.552E-07                                 F               2         First time derivative of ED First time derivative of 2nd tower side-to-side bending mode DOF (internal DOF index = DOF_TSS2), m/s/s
         22   -7.611E-05                                 F               2         First time derivative of ED First time derivative of Variable speed generator DOF (internal DOF index = DOF_GeAz), rad/s/s

Order of inputs:
     Column   Operating Point                     Rotating Frame? Derivative Order Description
   ---------- ---------------                     --------------- ---------------- -----------
          1   -1.080E+01                                 F               0         IfW X-component position of node 1 (hub), m
          2    0.000E+00                                 F               0         IfW Y-component position of node 1 (hub), m
          3    1.497E+02                                 F               0         IfW Z-component position of node 1 (hub), m
          4    8.926E+00                                 F               0         IfW X-component position of node 2 (blade 1, node 1), m
          5   -3.389E+00                                 F               0         IfW Y-component position of node 2 (blade 1, node 1), m
          6    1.533E+02                                 F               0         IfW Z-component position of node 2 (blade 1, node 1), m
          7    9.079E+00                                 F               0         IfW X-component position of node 3 (blade 1, node 2), m
          8   -2.352E+00                                 F               0         IfW Y-component position of node 3 (blade 1, node 2), m
          9    1.541E+02                                 F               0         IfW Z-component position of node 3 (blade 1, node 2), m
         10    1.116E+01                                 F               0         IfW X-component position of node 4 (blade 1, node 3), m
         11    1.176E+01                                 F               0         IfW Y-component position of node 4 (blade 1, node 3), m
         12    1.653E+02                                 F               0         IfW Z-component position of node 4 (blade 1, node 3), m
         13    1.160E+01                                 F               0         IfW X-component position of node 5 (blade 1, node 4), m
         14    1.476E+01                                 F               0         IfW Y-component position of node 5 (blade 1, node 4), m
         15    1.677E+02                                 F               0         IfW Z-component position of node 5 (blade 1, node 4), m
         16    1.204E+01                                 F               0         IfW X-component position of node 6 (blade 1, node 5), m
         17    1.777E+01                                 F               0         IfW Y-component position of node 6 (blade 1, node 5), m
         18    1.701E+02                                 F               0         IfW Z-component position of node 6 (blade 1, node 5), m
         19    1.248E+01                                 F               0         IfW X-component position of node 7 (blade 1, node 6), m
         20    2.077E+01                                 F               0         IfW Y-component position of node 7 (blade 1, node 6), m
         21    1.725E+02                                 F               0         IfW Z-component position of node 7 (blade 1, node 6), m
         22    1.293E+01                                 F               0         IfW X-component position of node 8 (blade 1, node 7), m
         23    2.378E+01                                 F               0         IfW Y-component position of node 8 (blade 1, node 7), m
         24    1.749E+02                                 F               0         IfW Z-component position of node 8 (blade 1, node 7), m
         25    1.337E+01                                 F               0         IfW X-component position of node 9 (blade 1, node 8), m
         26    2.679E+01                                 F               0         IfW Y-component position of node 9 (blade 1, node 8), m
         27    1.773E+02                                 F               0         IfW Z-component position of node 9 (blade 1, node 8), m
         28    1.381E+01                                 F               0         IfW X-component position of node 10 (blade 1, node 9), m
         29    2.979E+01                                 F               0         IfW Y-component position of node 10 (blade 1, node 9), m
         30    1.797E+02                                 F               0         IfW Z-component position of node 10 (blade 1, node 9), m
         31    1.425E+01                                 F               0         IfW X-component position of node 11 (blade 1, node 10), m
         32    3.280E+01                                 F               0         IfW Y-component position of node 11 (blade 1, node 10), m
         33    1.821E+02                                 F               0         IfW Z-component position of node 11 (blade 1, node 10), m
         34    1.470E+01                                 F               0         IfW X-component position of node 12 (blade 1, node 11), m
         35    3.580E+01                                 F               0         IfW Y-component position of node 12 (blade 1, node 11), m
         36    1.845E+02                                 F               0         IfW Z-component position of node 12 (blade 1, node 11), m
         37    1.514E+01                                 F               0         IfW X-component position of node 13 (blade 1, node 12), m
         38    3.881E+01                                 F               0         IfW Y-component position of node 13 (blade 1, node 12), m
         39    1.869E+02                                 F               0         IfW Z-component position of node 13 (blade 1, node 12), m
         40    1.558E+01                                 F               0         IfW X-component position of node 14 (blade 1, node 13), m
         41    4.182E+01                                 F               0         IfW Y-component position of node 14 (blade 1, node 13), m
         42    1.893E+02                                 F               0         IfW Z-component position of node 14 (blade 1, node 13), m
         43    1.602E+01                                 F               0         IfW X-component position of node 15 (blade 1, node 14), m
         44    4.482E+01                                 F               0         IfW Y-component position of node 15 (blade 1, node 14), m
         45    1.917E+02                                 F               0         IfW Z-component position of node 15 (blade 1, node 14), m
         46    1.647E+01                                 F               0         IfW X-component position of node 16 (blade 1, node 15), m
         47    4.783E+01                                 F               0         IfW Y-component position of node 16 (blade 1, node 15), m
         48    1.940E+02                                 F               0         IfW Z-component position of node 16 (blade 1, node 15), m
         49    1.691E+01                                 F               0         IfW X-component position of node 17 (blade 1, node 16), m
         50    5.083E+01                                 F               0         IfW Y-component position of node 17 (blade 1, node 16), m
         51    1.964E+02                                 F               0         IfW Z-component position of node 17 (blade 1, node 16), m
         52    1.735E+01                                 F               0         IfW X-component position of node 18 (blade 1, node 17), m
         53    5.384E+01                                 F               0         IfW Y-component position of node 18 (blade 1, node 17), m
         54    1.988E+02                                 F               0         IfW Z-component position of node 18 (blade 1, node 17), m
         55    1.779E+01                                 F               0         IfW X-component position of node 19 (blade 1, node 18), m
         56    5.684E+01                                 F               0         IfW Y-component position of node 19 (blade 1, node 18), m
         57    2.012E+02                                 F               0         IfW Z-component position of node 19 (blade 1, node 18), m
         58    1.824E+01                                 F               0         IfW X-component position of node 20 (blade 1, node 19), m
         59    5.985E+01                                 F               0         IfW Y-component position of node 20 (blade 1, node 19), m
         60    2.036E+02                                 F               0         IfW Z-component position of node 20 (blade 1, node 19), m
         61    1.868E+01                                 F               0         IfW X-component position of node 21 (blade 1, node 20), m
         62    6.286E+01                                 F               0         IfW Y-component position of node 21 (blade 1, node 20), m
         63    2.060E+02                                 F               0         IfW Z-component position of node 21 (blade 1, node 20), m
         64    1.912E+01                                 F               0         IfW X-component position of node 22 (blade 1, node 21), m
         65    6.586E+01                                 F               0         IfW Y-component position of node 22 (blade 1, node 21), m
         66    2.084E+02                                 F               0         IfW Z-component position of node 22 (blade 1, node 21), m
         67    1.956E+01                                 F               0         IfW X-component position of node 23 (blade 1, node 22), m
         68    6.887E+01                                 F               0         IfW Y-component position of node 23 (blade 1, node 22), m
         69    2.108E+02                                 F               0         IfW Z-component position of node 23 (blade 1, node 22), m
         70    2.001E+01                                 F               0         IfW X-component position of node 24 (blade 1, node 23), m
         71    7.187E+01                                 F               0         IfW Y-component position of node 24 (blade 1, node 23), m
         72    2.132E+02                                 F               0         IfW Z-component position of node 24 (blade 1, node 23), m
         73    2.045E+01                                 F               0         IfW X-component position of node 25 (blade 1, node 24), m
         74    7.488E+01                                 F               0         IfW Y-component position of node 25 (blade 1, node 24), m
         75    2.156E+02                                 F               0         IfW Z-component position of node 25 (blade 1, node 24), m
         76    2.089E+01                                 F               0         IfW X-component position of node 26 (blade 1, node 25), m
         77    7.789E+01                                 F               0         IfW Y-component position of node 26 (blade 1, node 25), m
         78    2.180E+02                                 F               0         IfW Z-component position of node 26 (blade 1, node 25), m
         79    2.133E+01                                 F               0         IfW X-component position of node 27 (blade 1, node 26), m
         80    8.089E+01                                 F               0         IfW Y-component position of node 27 (blade 1, node 26), m
         81    2.204E+02                                 F               0         IfW Z-component position of node 27 (blade 1, node 26), m
         82    2.178E+01                                 F               0         IfW X-component position of node 28 (blade 1, node 27), m
         83    8.390E+01                                 F               0         IfW Y-component position of node 28 (blade 1, node 27), m
         84    2.228E+02                                 F               0         IfW Z-component position of node 28 (blade 1, node 27), m
         85    2.215E+01                                 F               0         IfW X-component position of node 29 (blade 1, node 28), m
         86    8.645E+01                                 F               0         IfW Y-component position of node 29 (blade 1, node 28), m
         87    2.248E+02                                 F               0         IfW Z-component position of node 29 (blade 1, node 28), m
         88    8.728E+00                                 F               0         IfW X-component position of node 30 (blade 2, node 1), m
         89   -1.287E+01                                 F               0         IfW Y-component position of node 30 (blade 2, node 1), m
         90    1.518E+02                                 F               0         IfW Z-component position of node 30 (blade 2, node 1), m
         91    8.833E+00                                 F               0         IfW X-component position of node 31 (blade 2, node 2), m
         92   -1.411E+01                                 F               0         IfW Y-component position of node 31 (blade 2, node 2), m
         93    1.522E+02                                 F               0         IfW Z-component position of node 31 (blade 2, node 2), m
         94    1.026E+01                                 F               0         IfW X-component position of node 32 (blade 2, node 3), m
         95   -3.106E+01                                 F               0         IfW Y-component position of node 32 (blade 2, node 3), m
         96    1.586E+02                                 F               0         IfW Z-component position of node 32 (blade 2, node 3), m
         97    1.056E+01                                 F               0         IfW X-component position of node 33 (blade 2, node 4), m
         98   -3.467E+01                                 F               0         IfW Y-component position of node 33 (blade 2, node 4), m
         99    1.599E+02                                 F               0         IfW Z-component position of node 33 (blade 2, node 4), m
        100    1.087E+01                                 F               0         IfW X-component position of node 34 (blade 2, node 5), m
        101   -3.828E+01                                 F               0         IfW Y-component position of node 34 (blade 2, node 5), m
        102    1.613E+02                                 F               0         IfW Z-component position of node 34 (blade 2, node 5), m
        103    1.117E+01                                 F               0         IfW X-component position of node 35 (blade 2, node 6), m
        104   -4.189E+01                                 F               0         IfW Y-component position of node 35 (blade 2, node 6), m
        105    1.627E+02                                 F               0         IfW Z-component position of node 35 (blade 2, node 6), m
        106    1.148E+01                                 F               0         IfW X-component position of node 36 (blade 2, node 7), m
        107   -4.550E+01                                 F               0         IfW Y-component position of node 36 (blade 2, node 7), m
        108    1.640E+02                                 F               0         IfW Z-component position of node 36 (blade 2, node 7), m
        109    1.178E+01                                 F               0         IfW X-component position of node 37 (blade 2, node 8), m
        110   -4.911E+01                                 F               0         IfW Y-component position of node 37 (blade 2, node 8), m
        111    1.654E+02                                 F               0         IfW Z-component position of node 37 (blade 2, node 8), m
        112    1.209E+01                                 F               0         IfW X-component position of node 38 (blade 2, node 9), m
        113   -5.272E+01                                 F               0         IfW Y-component position of node 38 (blade 2, node 9), m
        114    1.667E+02                                 F               0         IfW Z-component position of node 38 (blade 2, node 9), m
        115    1.239E+01                                 F               0         IfW X-component position of node 39 (blade 2, node 10), m
        116   -5.633E+01                                 F               0         IfW Y-component position of node 39 (blade 2, node 10), m
        117    1.681E+02                                 F               0         IfW Z-component position of node 39 (blade 2, node 10), m
        118    1.269E+01                                 F               0         IfW X-component position of node 40 (blade 2, node 11), m
        119   -5.994E+01                                 F               0         IfW Y-component position of node 40 (blade 2, node 11), m
        120    1.694E+02                                 F               0         IfW Z-component position of node 40 (blade 2, node 11), m
        121    1.300E+01                                 F               0         IfW X-component position of node 41 (blade 2, node 12), m
        122   -6.355E+01                                 F               0         IfW Y-component position of node 41 (blade 2, node 12), m
        123    1.708E+02                                 F               0         IfW Z-component position of node 41 (blade 2, node 12), m
        124    1.330E+01                                 F               0         IfW X-component position of node 42 (blade 2, node 13), m
        125   -6.716E+01                                 F               0         IfW Y-component position of node 42 (blade 2, node 13), m
        126    1.721E+02                                 F               0         IfW Z-component position of node 42 (blade 2, node 13), m
        127    1.361E+01                                 F               0         IfW X-component position of node 43 (blade 2, node 14), m
        128   -7.077E+01                                 F               0         IfW Y-component position of node 43 (blade 2, node 14), m
        129    1.735E+02                                 F               0         IfW Z-component position of node 43 (blade 2, node 14), m
        130    1.391E+01                                 F               0         IfW X-component position of node 44 (blade 2, node 15), m
        131   -7.438E+01                                 F               0         IfW Y-component position of node 44 (blade 2, node 15), m
        132    1.748E+02                                 F               0         IfW Z-component position of node 44 (blade 2, node 15), m
        133    1.421E+01                                 F               0         IfW X-component position of node 45 (blade 2, node 16), m
        134   -7.799E+01                                 F               0         IfW Y-component position of node 45 (blade 2, node 16), m
        135    1.762E+02                                 F               0         IfW Z-component position of node 45 (blade 2, node 16), m
        136    1.452E+01                                 F               0         IfW X-component position of node 46 (blade 2, node 17), m
        137   -8.160E+01                                 F               0         IfW Y-component position of node 46 (blade 2, node 17), m
        138    1.775E+02                                 F               0         IfW Z-component position of node 46 (blade 2, node 17), m
        139    1.482E+01                                 F               0         IfW X-component position of node 47 (blade 2, node 18), m
        140   -8.521E+01                                 F               0         IfW Y-component position of node 47 (blade 2, node 18), m
        141    1.789E+02                                 F               0         IfW Z-component position of node 47 (blade 2, node 18), m
        142    1.513E+01                                 F               0         IfW X-component position of node 48 (blade 2, node 19), m
        143   -8.883E+01                                 F               0         IfW Y-component position of node 48 (blade 2, node 19), m
        144    1.802E+02                                 F               0         IfW Z-component position of node 48 (blade 2, node 19), m