
Linearized model: Predictions were generated on 12-Jan-2024 at 08:43:17 using OpenFAST, compiled as a 64-bit application using single precision at commit v3.5.1
 linked with  NWTC Subroutine Library; ElastoDyn; InflowWind; AeroDyn; ServoDyn; HydroDyn; MAP++ (<1.20.10>, <Oct-20-2023>)

Description from the FAST input file: CCT-9 Campign 4 model. Input files to be run with OpenFAST 3.5.0. GitHub branch from Lu Wang (https://github.com/luwang00/openfast/tree/dev) compiled on March 7, 2023.

Simulation information:
   Simulation time:                   500.7500 s
   Rotor Speed:                         0.7076 rad/s
   Azimuth:                             3.9474 rad
   Wind Speed:                          8.0000 m/s
   Number of continuous states:         0
   Number of discrete states:           0
   Number of constraint states:         0
   Number of inputs:                 1746
   Number of outputs:                   4
   Jacobians included in this file?    No

Order of inputs:
     Column   Operating Point                     Rotating Frame? Derivative Order Description
   ---------- ---------------                     --------------- ---------------- -----------
          1    7.344E+00                                 F               0         Tower X translation displacement, node 1, m
          2   -1.335E+00                                 F               0         Tower Y translation displacement, node 1, m
          3   -2.027E-01                                 F               0         Tower Z translation displacement, node 1, m
          4    8.404E+00                                 F               0         Tower X translation displacement, node 2, m
          5   -1.915E+00                                 F               0         Tower Y translation displacement, node 2, m
          6   -2.620E-01                                 F               0         Tower Z translation displacement, node 2, m
          7    9.480E+00                                 F               0         Tower X translation displacement, node 3, m
          8   -2.501E+00                                 F               0         Tower Y translation displacement, node 3, m
          9   -3.228E-01                                 F               0         Tower Z translation displacement, node 3, m
         10    1.057E+01                                 F               0         Tower X translation displacement, node 4, m
         11   -3.091E+00                                 F               0         Tower Y translation displacement, node 4, m
         12   -3.850E-01                                 F               0         Tower Z translation displacement, node 4, m
         13    1.167E+01                                 F               0         Tower X translation displacement, node 5, m
         14   -3.685E+00                                 F               0         Tower Y translation displacement, node 5, m
         15   -4.482E-01                                 F               0         Tower Z translation displacement, node 5, m
         16    1.277E+01                                 F               0         Tower X translation displacement, node 6, m
         17   -4.282E+00                                 F               0         Tower Y translation displacement, node 6, m
         18   -5.121E-01                                 F               0         Tower Z translation displacement, node 6, m
         19    1.388E+01                                 F               0         Tower X translation displacement, node 7, m
         20   -4.882E+00                                 F               0         Tower Y translation displacement, node 7, m
         21   -5.767E-01                                 F               0         Tower Z translation displacement, node 7, m
         22    1.499E+01                                 F               0         Tower X translation displacement, node 8, m
         23   -5.484E+00                                 F               0         Tower Y translation displacement, node 8, m
         24   -6.418E-01                                 F               0         Tower Z translation displacement, node 8, m
         25    1.611E+01                                 F               0         Tower X translation displacement, node 9, m
         26   -6.088E+00                                 F               0         Tower Y translation displacement, node 9, m
         27   -7.071E-01                                 F               0         Tower Z translation displacement, node 9, m
         28    1.723E+01                                 F               0         Tower X translation displacement, node 10, m
         29   -6.692E+00                                 F               0         Tower Y translation displacement, node 10, m
         30   -7.727E-01                                 F               0         Tower Z translation displacement, node 10, m
         31    1.835E+01                                 F               0         Tower X translation displacement, node 11, m
         32   -7.298E+00                                 F               0         Tower Y translation displacement, node 11, m
         33   -8.384E-01                                 F               0         Tower Z translation displacement, node 11, m
         34    9.964E-01,  4.566E-03, -8.516E-02         F               0         Tower X orientation angle, node 1, rad
         35   -5.625E-04,  9.989E-01,  4.698E-02         F               0         Tower Y orientation angle, node 1, rad
         36    8.528E-02, -4.676E-02,  9.953E-01         F               0         Tower Z orientation angle, node 1, rad
         37    9.963E-01,  4.624E-03, -8.638E-02         F               0         Tower X orientation angle, node 2, rad
         38   -5.251E-04,  9.989E-01,  4.742E-02         F               0         Tower Y orientation angle, node 2, rad
         39    8.650E-02, -4.719E-02,  9.951E-01         F               0         Tower Z orientation angle, node 2, rad
         40    9.962E-01,  4.674E-03, -8.743E-02         F               0         Tower X orientation angle, node 3, rad
         41   -4.911E-04,  9.989E-01,  4.780E-02         F               0         Tower Y orientation angle, node 3, rad
         42    8.755E-02, -4.758E-02,  9.950E-01         F               0         Tower Z orientation angle, node 3, rad
         43    9.961E-01,  4.716E-03, -8.829E-02         F               0         Tower X orientation angle, node 4, rad
         44   -4.612E-04,  9.988E-01,  4.814E-02         F               0         Tower Y orientation angle, node 4, rad
         45    8.842E-02, -4.791E-02,  9.949E-01         F               0         Tower Z orientation angle, node 4, rad
         46    9.960E-01,  4.749E-03, -8.898E-02         F               0         Tower X orientation angle, node 5, rad
         47   -4.352E-04,  9.988E-01,  4.843E-02         F               0         Tower Y orientation angle, node 5, rad
         48    8.911E-02, -4.820E-02,  9.949E-01         F               0         Tower Z orientation angle, node 5, rad
         49    9.960E-01,  4.775E-03, -8.951E-02         F               0         Tower X orientation angle, node 6, rad
         50   -4.134E-04,  9.988E-01,  4.868E-02         F               0         Tower Y orientation angle, node 6, rad
         51    8.964E-02, -4.845E-02,  9.948E-01         F               0         Tower Z orientation angle, node 6, rad
         52    9.959E-01,  4.793E-03, -8.989E-02         F               0         Tower X orientation angle, node 7, rad
         53   -3.959E-04,  9.988E-01,  4.887E-02         F               0         Tower Y orientation angle, node 7, rad
         54    9.002E-02, -4.864E-02,  9.948E-01         F               0         Tower Z orientation angle, node 7, rad
         55    9.959E-01,  4.806E-03, -9.015E-02         F               0         Tower X orientation angle, node 8, rad
         56   -3.822E-04,  9.988E-01,  4.903E-02         F               0         Tower Y orientation angle, node 8, rad
         57    9.028E-02, -4.879E-02,  9.947E-01         F               0         Tower Z orientation angle, node 8, rad
         58    9.959E-01,  4.814E-03, -9.032E-02         F               0         Tower X orientation angle, node 9, rad
         59   -3.723E-04,  9.988E-01,  4.914E-02         F               0         Tower Y orientation angle, node 9, rad
         60    9.044E-02, -4.890E-02,  9.947E-01         F               0         Tower Z orientation angle, node 9, rad
         61    9.959E-01,  4.819E-03, -9.041E-02         F               0         Tower X orientation angle, node 10, rad
         62   -3.657E-04,  9.988E-01,  4.921E-02         F               0         Tower Y orientation angle, node 10, rad
         63    9.053E-02, -4.897E-02,  9.947E-01         F               0         Tower Z orientation angle, node 10, rad
         64    9.959E-01,  4.821E-03, -9.045E-02         F               0         Tower X orientation angle, node 11, rad
         65   -3.621E-04,  9.988E-01,  4.925E-02         F               0         Tower Y orientation angle, node 11, rad
         66    9.058E-02, -4.901E-02,  9.947E-01         F               0         Tower Z orientation angle, node 11, rad
         67   -4.164E-03                                 F               0         Tower X translation velocity, node 1, m/s
         68    3.307E-03                                 F               0         Tower Y translation velocity, node 1, m/s
         69   -6.429E-04                                 F               0         Tower Z translation velocity, node 1, m/s
         70   -4.191E-03                                 F               0         Tower X translation velocity, node 2, m/s
         71    4.120E-03                                 F               0         Tower Y translation velocity, node 2, m/s
         72   -6.022E-04                                 F               0         Tower Z translation velocity, node 2, m/s
         73   -4.223E-03                                 F               0         Tower X translation velocity, node 3, m/s
         74    4.958E-03                                 F               0         Tower Y translation velocity, node 3, m/s
         75   -5.594E-04                                 F               0         Tower Z translation velocity, node 3, m/s
         76   -4.260E-03                                 F               0         Tower X translation velocity, node 4, m/s
         77    5.815E-03                                 F               0         Tower Y translation velocity, node 4, m/s
         78   -5.150E-04                                 F               0         Tower Z translation velocity, node 4, m/s
         79   -4.303E-03                                 F               0         Tower X translation velocity, node 5, m/s
         80    6.689E-03                                 F               0         Tower Y translation velocity, node 5, m/s
         81   -4.689E-04                                 F               0         Tower Z translation velocity, node 5, m/s
         82   -4.351E-03                                 F               0         Tower X translation velocity, node 6, m/s
         83    7.577E-03                                 F               0         Tower Y translation velocity, node 6, m/s
         84   -4.215E-04                                 F               0         Tower Z translation velocity, node 6, m/s
         85   -4.403E-03                                 F               0         Tower X translation velocity, node 7, m/s
         86    8.478E-03                                 F               0         Tower Y translation velocity, node 7, m/s
         87   -3.728E-04                                 F               0         Tower Z translation velocity, node 7, m/s
         88   -4.460E-03                                 F               0         Tower X translation velocity, node 8, m/s
         89    9.389E-03                                 F               0         Tower Y translation velocity, node 8, m/s
         90   -3.231E-04                                 F               0         Tower Z translation velocity, node 8, m/s
         91   -4.520E-03                                 F               0         Tower X translation velocity, node 9, m/s
         92    1.031E-02                                 F               0         Tower Y translation velocity, node 9, m/s
         93   -2.724E-04                                 F               0         Tower Z translation velocity, node 9, m/s
         94   -4.584E-03                                 F               0         Tower X translation velocity, node 10, m/s
         95    1.123E-02                                 F               0         Tower Y translation velocity, node 10, m/s
         96   -2.211E-04                                 F               0         Tower Z translation velocity, node 10, m/s
         97   -4.649E-03                                 F               0         Tower X translation velocity, node 11, m/s
         98    1.216E-02                                 F               0         Tower Y translation velocity, node 11, m/s
         99   -1.694E-04                                 F               0         Tower Z translation velocity, node 11, m/s
        100    1.910E+01                                 F               0         Hub X translation displacement, node 1, m
        101   -7.735E+00                                 F               0         Hub Y translation displacement, node 1, m
        102    9.675E-02                                 F               0         Hub Z translation displacement, node 1, m
        103    9.810E-01,  9.918E-03, -1.939E-01         F               0         Hub X orientation angle, node 1, rad
        104   -1.398E-01, -6.569E-01, -7.409E-01         F               0         Hub Y orientation angle, node 1, rad
        105   -1.347E-01,  7.539E-01, -6.430E-01         F               0         Hub Z orientation angle, node 1, rad
        106    6.940E-01                                 F               0         Hub X rotation velocity, node 1, rad/s
        107    7.010E-03                                 F               0         Hub Y rotation velocity, node 1, rad/s
        108   -1.372E-01                                 F               0         Hub Z rotation velocity, node 1, rad/s
        109    9.847E-01,  2.940E-02, -1.719E-01         F               0         Blade root 1 X orientation angle, node 1, rad
        110   -1.107E-01, -6.563E-01, -7.464E-01         F               0         Blade root 1 Y orientation angle, node 1, rad
        111   -1.347E-01,  7.539E-01, -6.430E-01         F               0         Blade root 1 Z orientation angle, node 1, rad
        112    9.819E-01, -1.920E-02, -1.883E-01         F               0         Blade root 2 X orientation angle, node 1, rad
        113   -1.764E-02,  9.812E-01, -1.920E-01         F               0         Blade root 2 Y orientation angle, node 1, rad
        114    1.885E-01,  1.919E-01,  9.632E-01         F               0         Blade root 2 Z orientation angle, node 1, rad
        115    9.750E-01,  1.954E-02, -2.213E-01         F               0         Blade root 3 X orientation angle, node 1, rad
        116    2.156E-01, -3.241E-01,  9.211E-01         F               0         Blade root 3 Y orientation angle, node 1, rad
        117   -5.373E-02, -9.458E-01, -3.202E-01         F               0         Blade root 3 Z orientation angle, node 1, rad
        118    1.778E+01                                 F               0         Blade 1 X translation displacement, node 1, m
        119   -3.558E+00                                 F               0         Blade 1 Y translation displacement, node 1, m
        120   -8.975E+00                                 F               0         Blade 1 Z translation displacement, node 1, m
        121    1.746E+01                                 F               0         Blade 1 X translation displacement, node 2, m
        122   -2.551E+00                                 F               0         Blade 1 Y translation displacement, node 2, m
        123   -1.116E+01                                 F               0         Blade 1 Z translation displacement, node 2, m
        124    1.311E+01                                 F               0         Blade 1 X translation displacement, node 3, m
        125    1.113E+01                                 F               0         Blade 1 Y translation displacement, node 3, m
        126   -4.089E+01                                 F               0         Blade 1 Z translation displacement, node 3, m
        127    1.219E+01                                 F               0         Blade 1 X translation displacement, node 4, m
        128    1.405E+01                                 F               0         Blade 1 Y translation displacement, node 4, m
        129   -4.722E+01                                 F               0         Blade 1 Z translation displacement, node 4, m
        130    1.126E+01                                 F               0         Blade 1 X translation displacement, node 5, m
        131    1.697E+01                                 F               0         Blade 1 Y translation displacement, node 5, m
        132   -5.355E+01                                 F               0         Blade 1 Z translation displacement, node 5, m
        133    1.034E+01                                 F               0         Blade 1 X translation displacement, node 6, m
        134    1.988E+01                                 F               0         Blade 1 Y translation displacement, node 6, m
        135   -5.989E+01                                 F               0         Blade 1 Z translation displacement, node 6, m
        136    9.413E+00                                 F               0         Blade 1 X translation displacement, node 7, m
        137    2.280E+01                                 F               0         Blade 1 Y translation displacement, node 7, m
        138   -6.622E+01                                 F               0         Blade 1 Z translation displacement, node 7, m
        139    8.488E+00                                 F               0         Blade 1 X translation displacement, node 8, m
        140    2.572E+01                                 F               0         Blade 1 Y translation displacement, node 8, m
        141   -7.255E+01                                 F               0         Blade 1 Z translation displacement, node 8, m
        142    7.563E+00                                 F               0         Blade 1 X translation displacement, node 9, m
        143    2.863E+01                                 F               0         Blade 1 Y translation displacement, node 9, m
        144   -7.889E+01                                 F               0         Blade 1 Z translation displacement, node 9, m
        145    6.637E+00                                 F               0         Blade 1 X translation displacement, node 10, m
        146    3.155E+01                                 F               0         Blade 1 Y translation displacement, node 10, m
        147   -8.522E+01                                 F               0         Blade 1 Z translation displacement, node 10, m
        148    5.712E+00                                 F               0         Blade 1 X translation displacement, node 11, m
        149    3.446E+01                                 F               0         Blade 1 Y translation displacement, node 11, m
        150   -9.155E+01                                 F               0         Blade 1 Z translation displacement, node 11, m
        151    4.786E+00                                 F               0         Blade 1 X translation displacement, node 12, m
        152    3.738E+01                                 F               0         Blade 1 Y translation displacement, node 12, m
        153   -9.789E+01                                 F               0         Blade 1 Z translation displacement, node 12, m
        154    3.861E+00                                 F               0         Blade 1 X translation displacement, node 13, m
        155    4.030E+01                                 F               0         Blade 1 Y translation displacement, node 13, m
        156   -1.042E+02                                 F               0         Blade 1 Z translation displacement, node 13, m
        157    2.936E+00                                 F               0         Blade 1 X translation displacement, node 14, m
        158    4.321E+01                                 F               0         Blade 1 Y translation displacement, node 14, m
        159   -1.106E+02                                 F               0         Blade 1 Z translation displacement, node 14, m
        160    2.010E+00                                 F               0         Blade 1 X translation displacement, node 15, m
        161    4.613E+01                                 F               0         Blade 1 Y translation displacement, node 15, m
        162   -1.169E+02                                 F               0         Blade 1 Z translation displacement, node 15, m
        163    1.085E+00                                 F               0         Blade 1 X translation displacement, node 16, m
        164    4.904E+01                                 F               0         Blade 1 Y translation displacement, node 16, m
        165   -1.232E+02                                 F               0         Blade 1 Z translation displacement, node 16, m
        166    1.596E-01                                 F               0         Blade 1 X translation displacement, node 17, m
        167    5.196E+01                                 F               0         Blade 1 Y translation displacement, node 17, m
        168   -1.296E+02                                 F               0         Blade 1 Z translation displacement, node 17, m
        169   -7.657E-01                                 F               0         Blade 1 X translation displacement, node 18, m
        170    5.488E+01                                 F               0         Blade 1 Y translation displacement, node 18, m
        171   -1.359E+02                                 F               0         Blade 1 Z translation displacement, node 18, m
        172   -1.691E+00                                 F               0         Blade 1 X translation displacement, node 19, m
        173    5.779E+01                                 F               0         Blade 1 Y translation displacement, node 19, m
        174   -1.422E+02                                 F               0         Blade 1 Z translation displacement, node 19, m
        175   -2.617E+00                                 F               0         Blade 1 X translation displacement, node 20, m
        176    6.071E+01                                 F               0         Blade 1 Y translation displacement, node 20, m
        177   -1.486E+02                                 F               0         Blade 1 Z translation displacement, node 20, m
        178   -3.542E+00                                 F               0         Blade 1 X translation displacement, node 21, m
        179    6.362E+01                                 F               0         Blade 1 Y translation displacement, node 21, m
        180   -1.549E+02                                 F               0         Blade 1 Z translation displacement, node 21, m
        181   -4.467E+00                                 F               0         Blade 1 X translation displacement, node 22, m
        182    6.654E+01                                 F               0         Blade 1 Y translation displacement, node 22, m
        183   -1.612E+02                                 F               0         Blade 1 Z translation displacement, node 22, m
        184   -5.393E+00                                 F               0         Blade 1 X translation displacement, node 23, m
        185    6.946E+01                                 F               0         Blade 1 Y translation displacement, node 23, m
        186   -1.676E+02                                 F               0         Blade 1 Z translation displacement, node 23, m
        187   -6.318E+00                                 F               0         Blade 1 X translation displacement, node 24, m
        188    7.237E+01                                 F               0         Blade 1 Y translation displacement, node 24, m
        189   -1.739E+02                                 F               0         Blade 1 Z translation displacement, node 24, m
        190   -7.243E+00                                 F               0         Blade 1 X translation displacement, node 25, m
        191    7.529E+01                                 F               0         Blade 1 Y translation displacement, node 25, m
        192   -1.802E+02                                 F               0         Blade 1 Z translation displacement, node 25, m
        193   -8.169E+00                                 F               0         Blade 1 X translation displacement, node 26, m
        194    7.820E+01                                 F               0         Blade 1 Y translation displacement, node 26, m
        195   -1.866E+02                                 F               0         Blade 1 Z translation displacement, node 26, m
        196   -9.094E+00                                 F               0         Blade 1 X translation displacement, node 27, m
        197    8.112E+01                                 F               0         Blade 1 Y translation displacement, node 27, m
        198   -1.929E+02                                 F               0         Blade 1 Z translation displacement, node 27, m
        199   -9.879E+00                                 F               0         Blade 1 X translation displacement, node 28, m
        200    8.359E+01                                 F               0         Blade 1 Y translation displacement, node 28, m
        201   -1.983E+02                                 F               0         Blade 1 Z translation displacement, node 28, m
        202    9.268E-01,  3.254E-01,  1.874E-01         F               0         Blade 1 X orientation angle, node 1, rad
        203    3.505E-01, -5.707E-01, -7.426E-01         F               0         Blade 1 Y orientation angle, node 1, rad
        204   -1.347E-01,  7.539E-01, -6.430E-01         F               0         Blade 1 Z orientation angle, node 1, rad
        205    9.268E-01,  3.254E-01,  1.874E-01         F               0         Blade 1 X orientation angle, node 2, rad
        206    3.505E-01, -5.707E-01, -7.426E-01         F               0         Blade 1 Y orientation angle, node 2, rad
        207   -1.347E-01,  7.539E-01, -6.430E-01         F               0         Blade 1 Z orientation angle, node 2, rad
        208    9.835E-01,  1.809E-01,  6.054E-03         F               0         Blade 1 X orientation angle, node 3, rad
        209    1.209E-01, -6.315E-01, -7.659E-01         F               0         Blade 1 Y orientation angle, node 3, rad
        210   -1.347E-01,  7.539E-01, -6.430E-01         F               0         Blade 1 Z orientation angle, node 3, rad
        211    9.877E-01,  1.541E-01, -2.629E-02         F               0         Blade 1 X orientation angle, node 4, rad
        212    7.925E-02, -6.386E-01, -7.654E-01         F               0         Blade 1 Y orientation angle, node 4, rad
        213   -1.347E-01,  7.539E-01, -6.430E-01         F               0         Blade 1 Z orientation angle, node 4, rad
        214    9.898E-01,  1.328E-01, -5.165E-02         F               0         Blade 1 X orientation angle, node 5, rad
        215    4.646E-02, -6.434E-01, -7.641E-01         F               0         Blade 1 Y orientation angle, node 5, rad
        216   -1.347E-01,  7.539E-01, -6.430E-01         F               0         Blade 1 Z orientation angle, node 5, rad
        217    9.907E-01,  1.157E-01, -7.190E-02         F               0         Blade 1 X orientation angle, node 6, rad
        218    2.019E-02, -6.467E-01, -7.625E-01         F               0         Blade 1 Y orientation angle, node 6, rad
        219   -1.347E-01,  7.539E-01, -6.430E-01         F               0         Blade 1 Z orientation angle, node 6, rad
        220    9.909E-01,  1.016E-01, -8.852E-02         F               0         Blade 1 X orientation angle, node 7, rad
        221   -1.428E-03, -6.490E-01, -7.608E-01         F               0         Blade 1 Y orientation angle, node 7, rad
        222   -1.347E-01,  7.539E-01, -6.430E-01         F               0         Blade 1 Z orientation angle, node 7, rad
        223    9.907E-01,  8.978E-02, -1.023E-01         F               0         Blade 1 X orientation angle, node 8, rad
        224   -1.941E-02, -6.508E-01, -7.590E-01         F               0         Blade 1 Y orientation angle, node 8, rad
        225   -1.347E-01,  7.539E-01, -6.430E-01         F               0         Blade 1 Z orientation angle, node 8, rad
        226    9.903E-01,  7.978E-02, -1.140E-01         F               0         Blade 1 X orientation angle, node 9, rad
        227   -3.463E-02, -6.521E-01, -7.574E-01         F               0         Blade 1 Y orientation angle, node 9, rad