
Linearized model: Predictions were generated on 12-Jan-2024 at 08:43:17 using OpenFAST, compiled as a 64-bit application using single precision at commit v3.5.1
 linked with  NWTC Subroutine Library; ElastoDyn; InflowWind; AeroDyn; ServoDyn; HydroDyn; MAP++ (<1.20.10>, <Oct-20-2023>)

Description from the FAST input file: CCT-9 Campign 4 model. Input files to be run with OpenFAST 3.5.0. GitHub branch from Lu Wang (https://github.com/luwang00/openfast/tree/dev) compiled on March 7, 2023.

Simulation information:
   Simulation time:                   500.0000 s
   Rotor Speed:                         0.7074 rad/s
   Azimuth:                             3.4168 rad
   Wind Speed:                          8.0000 m/s
   Number of continuous states:         0
   Number of discrete states:           0
   Number of constraint states:         0
   Number of inputs:                 1746
   Number of outputs:                   4
   Jacobians included in this file?    No

Order of inputs:
     Column   Operating Point                     Rotating Frame? Derivative Order Description
   ---------- ---------------                     --------------- ---------------- -----------
          1    7.347E+00                                 F               0         Tower X translation displacement, node 1, m
          2   -1.338E+00                                 F               0         Tower Y translation displacement, node 1, m
          3   -2.020E-01                                 F               0         Tower Z translation displacement, node 1, m
          4    8.407E+00                                 F               0         Tower X translation displacement, node 2, m
          5   -1.918E+00                                 F               0         Tower Y translation displacement, node 2, m
          6   -2.613E-01                                 F               0         Tower Z translation displacement, node 2, m
          7    9.483E+00                                 F               0         Tower X translation displacement, node 3, m
          8   -2.504E+00                                 F               0         Tower Y translation displacement, node 3, m
          9   -3.222E-01                                 F               0         Tower Z translation displacement, node 3, m
         10    1.057E+01                                 F               0         Tower X translation displacement, node 4, m
         11   -3.095E+00                                 F               0         Tower Y translation displacement, node 4, m
         12   -3.843E-01                                 F               0         Tower Z translation displacement, node 4, m
         13    1.167E+01                                 F               0         Tower X translation displacement, node 5, m
         14   -3.689E+00                                 F               0         Tower Y translation displacement, node 5, m
         15   -4.475E-01                                 F               0         Tower Z translation displacement, node 5, m
         16    1.277E+01                                 F               0         Tower X translation displacement, node 6, m
         17   -4.287E+00                                 F               0         Tower Y translation displacement, node 6, m
         18   -5.116E-01                                 F               0         Tower Z translation displacement, node 6, m
         19    1.388E+01                                 F               0         Tower X translation displacement, node 7, m
         20   -4.887E+00                                 F               0         Tower Y translation displacement, node 7, m
         21   -5.762E-01                                 F               0         Tower Z translation displacement, node 7, m
         22    1.500E+01                                 F               0         Tower X translation displacement, node 8, m
         23   -5.490E+00                                 F               0         Tower Y translation displacement, node 8, m
         24   -6.412E-01                                 F               0         Tower Z translation displacement, node 8, m
         25    1.611E+01                                 F               0         Tower X translation displacement, node 9, m
         26   -6.094E+00                                 F               0         Tower Y translation displacement, node 9, m
         27   -7.066E-01                                 F               0         Tower Z translation displacement, node 9, m
         28    1.723E+01                                 F               0         Tower X translation displacement, node 10, m
         29   -6.699E+00                                 F               0         Tower Y translation displacement, node 10, m
         30   -7.722E-01                                 F               0         Tower Z translation displacement, node 10, m
         31    1.835E+01                                 F               0         Tower X translation displacement, node 11, m
         32   -7.305E+00                                 F               0         Tower Y translation displacement, node 11, m
         33   -8.379E-01                                 F               0         Tower Z translation displacement, node 11, m
         34    9.964E-01,  4.541E-03, -8.516E-02         F               0         Tower X orientation angle, node 1, rad
         35   -5.336E-04,  9.989E-01,  4.702E-02         F               0         Tower Y orientation angle, node 1, rad
         36    8.528E-02, -4.680E-02,  9.953E-01         F               0         Tower Z orientation angle, node 1, rad
         37    9.963E-01,  4.598E-03, -8.638E-02         F               0         Tower X orientation angle, node 2, rad
         38   -4.962E-04,  9.989E-01,  4.745E-02         F               0         Tower Y orientation angle, node 2, rad
         39    8.650E-02, -4.723E-02,  9.951E-01         F               0         Tower Z orientation angle, node 2, rad
         40    9.962E-01,  4.648E-03, -8.743E-02         F               0         Tower X orientation angle, node 3, rad
         41   -4.621E-04,  9.989E-01,  4.784E-02         F               0         Tower Y orientation angle, node 3, rad
         42    8.755E-02, -4.761E-02,  9.950E-01         F               0         Tower Z orientation angle, node 3, rad
         43    9.961E-01,  4.690E-03, -8.830E-02         F               0         Tower X orientation angle, node 4, rad
         44   -4.321E-04,  9.988E-01,  4.818E-02         F               0         Tower Y orientation angle, node 4, rad
         45    8.842E-02, -4.795E-02,  9.949E-01         F               0         Tower Z orientation angle, node 4, rad
         46    9.960E-01,  4.723E-03, -8.899E-02         F               0         Tower X orientation angle, node 5, rad
         47   -4.061E-04,  9.988E-01,  4.847E-02         F               0         Tower Y orientation angle, node 5, rad
         48    8.911E-02, -4.824E-02,  9.949E-01         F               0         Tower Z orientation angle, node 5, rad
         49    9.960E-01,  4.749E-03, -8.952E-02         F               0         Tower X orientation angle, node 6, rad
         50   -3.842E-04,  9.988E-01,  4.872E-02         F               0         Tower Y orientation angle, node 6, rad
         51    8.964E-02, -4.848E-02,  9.948E-01         F               0         Tower Z orientation angle, node 6, rad
         52    9.959E-01,  4.768E-03, -8.989E-02         F               0         Tower X orientation angle, node 7, rad
         53   -3.666E-04,  9.988E-01,  4.891E-02         F               0         Tower Y orientation angle, node 7, rad
         54    9.002E-02, -4.868E-02,  9.947E-01         F               0         Tower Z orientation angle, node 7, rad
         55    9.959E-01,  4.781E-03, -9.015E-02         F               0         Tower X orientation angle, node 8, rad
         56   -3.529E-04,  9.988E-01,  4.906E-02         F               0         Tower Y orientation angle, node 8, rad
         57    9.028E-02, -4.883E-02,  9.947E-01         F               0         Tower Z orientation angle, node 8, rad
         58    9.959E-01,  4.789E-03, -9.032E-02         F               0         Tower X orientation angle, node 9, rad
         59   -3.429E-04,  9.988E-01,  4.917E-02         F               0         Tower Y orientation angle, node 9, rad
         60    9.045E-02, -4.894E-02,  9.947E-01         F               0         Tower Z orientation angle, node 9, rad
         61    9.959E-01,  4.793E-03, -9.041E-02         F               0         Tower X orientation angle, node 10, rad
         62   -3.364E-04,  9.988E-01,  4.925E-02         F               0         Tower Y orientation angle, node 10, rad
         63    9.054E-02, -4.901E-02,  9.947E-01         F               0         Tower Z orientation angle, node 10, rad
         64    9.959E-01,  4.795E-03, -9.045E-02         F               0         Tower X orientation angle, node 11, rad
         65   -3.328E-04,  9.988E-01,  4.929E-02         F               0         Tower Y orientation angle, node 11, rad
         66    9.058E-02, -4.906E-02,  9.947E-01         F               0         Tower Z orientation angle, node 11, rad
         67   -3.970E-03                                 F               0         Tower X translation velocity, node 1, m/s
         68    2.961E-03                                 F               0         Tower Y translation velocity, node 1, m/s
         69   -1.237E-03                                 F               0         Tower Z translation velocity, node 1, m/s
         70   -4.011E-03                                 F               0         Tower X translation velocity, node 2, m/s
         71    3.345E-03                                 F               0         Tower Y translation velocity, node 2, m/s
         72   -1.215E-03                                 F               0         Tower Z translation velocity, node 2, m/s
         73   -4.042E-03                                 F               0         Tower X translation velocity, node 3, m/s
         74    3.743E-03                                 F               0         Tower Y translation velocity, node 3, m/s
         75   -1.193E-03                                 F               0         Tower Z translation velocity, node 3, m/s
         76   -4.064E-03                                 F               0         Tower X translation velocity, node 4, m/s
         77    4.154E-03                                 F               0         Tower Y translation velocity, node 4, m/s
         78   -1.172E-03                                 F               0         Tower Z translation velocity, node 4, m/s
         79   -4.078E-03                                 F               0         Tower X translation velocity, node 5, m/s
         80    4.575E-03                                 F               0         Tower Y translation velocity, node 5, m/s
         81   -1.150E-03                                 F               0         Tower Z translation velocity, node 5, m/s
         82   -4.085E-03                                 F               0         Tower X translation velocity, node 6, m/s
         83    5.005E-03                                 F               0         Tower Y translation velocity, node 6, m/s
         84   -1.128E-03                                 F               0         Tower Z translation velocity, node 6, m/s
         85   -4.085E-03                                 F               0         Tower X translation velocity, node 7, m/s
         86    5.442E-03                                 F               0         Tower Y translation velocity, node 7, m/s
         87   -1.107E-03                                 F               0         Tower Z translation velocity, node 7, m/s
         88   -4.080E-03                                 F               0         Tower X translation velocity, node 8, m/s
         89    5.886E-03                                 F               0         Tower Y translation velocity, node 8, m/s
         90   -1.086E-03                                 F               0         Tower Z translation velocity, node 8, m/s
         91   -4.069E-03                                 F               0         Tower X translation velocity, node 9, m/s
         92    6.334E-03                                 F               0         Tower Y translation velocity, node 9, m/s
         93   -1.065E-03                                 F               0         Tower Z translation velocity, node 9, m/s
         94   -4.056E-03                                 F               0         Tower X translation velocity, node 10, m/s
         95    6.786E-03                                 F               0         Tower Y translation velocity, node 10, m/s
         96   -1.044E-03                                 F               0         Tower Z translation velocity, node 10, m/s
         97   -4.040E-03                                 F               0         Tower X translation velocity, node 11, m/s
         98    7.240E-03                                 F               0         Tower Y translation velocity, node 11, m/s
         99   -1.023E-03                                 F               0         Tower Z translation velocity, node 11, m/s
        100    1.911E+01                                 F               0         Hub X translation displacement, node 1, m
        101   -7.742E+00                                 F               0         Hub Y translation displacement, node 1, m
        102    9.722E-02                                 F               0         Hub Z translation displacement, node 1, m
        103    9.810E-01,  9.897E-03, -1.939E-01         F               0         Hub X orientation angle, node 1, rad
        104   -5.245E-02, -9.481E-01, -3.137E-01         F               0         Hub Y orientation angle, node 1, rad
        105   -1.870E-01,  3.179E-01, -9.295E-01         F               0         Hub Z orientation angle, node 1, rad
        106    6.939E-01                                 F               0         Hub X rotation velocity, node 1, rad/s
        107    7.001E-03                                 F               0         Hub Y rotation velocity, node 1, rad/s
        108   -1.372E-01                                 F               0         Hub Z rotation velocity, node 1, rad/s
        109    9.821E-01,  3.802E-02, -1.845E-01         F               0         Blade root 1 X orientation angle, node 1, rad
        110   -2.332E-02, -9.474E-01, -3.193E-01         F               0         Blade root 1 Y orientation angle, node 1, rad
        111   -1.870E-01,  3.179E-01, -9.295E-01         F               0         Blade root 1 Z orientation angle, node 1, rad
        112    9.846E-01, -1.234E-02, -1.746E-01         F               0         Blade root 2 X orientation angle, node 1, rad
        113   -1.065E-01,  7.493E-01, -6.536E-01         F               0         Blade root 2 Y orientation angle, node 1, rad
        114    1.389E-01,  6.621E-01,  7.364E-01         F               0         Blade root 2 Z orientation angle, node 1, rad
        115    9.750E-01,  3.997E-03, -2.224E-01         F               0         Blade root 3 X orientation angle, node 1, rad
        116    2.172E-01,  1.989E-01,  9.556E-01         F               0         Blade root 3 Y orientation angle, node 1, rad
        117    4.806E-02, -9.800E-01,  1.931E-01         F               0         Blade root 3 Z orientation angle, node 1, rad
        118    1.749E+01                                 F               0         Blade 1 X translation displacement, node 1, m
        119   -5.981E+00                                 F               0         Blade 1 Y translation displacement, node 1, m
        120   -1.056E+01                                 F               0         Blade 1 Z translation displacement, node 1, m
        121    1.710E+01                                 F               0         Blade 1 X translation displacement, node 2, m
        122   -5.556E+00                                 F               0         Blade 1 Y translation displacement, node 2, m
        123   -1.313E+01                                 F               0         Blade 1 Z translation displacement, node 2, m
        124    1.181E+01                                 F               0         Blade 1 X translation displacement, node 3, m
        125    2.142E-01                                 F               0         Blade 1 Y translation displacement, node 3, m
        126   -4.806E+01                                 F               0         Blade 1 Z translation displacement, node 3, m
        127    1.068E+01                                 F               0         Blade 1 X translation displacement, node 4, m
        128    1.444E+00                                 F               0         Blade 1 Y translation displacement, node 4, m
        129   -5.550E+01                                 F               0         Blade 1 Z translation displacement, node 4, m
        130    9.556E+00                                 F               0         Blade 1 X translation displacement, node 5, m
        131    2.673E+00                                 F               0         Blade 1 Y translation displacement, node 5, m
        132   -6.294E+01                                 F               0         Blade 1 Z translation displacement, node 5, m
        133    8.429E+00                                 F               0         Blade 1 X translation displacement, node 6, m
        134    3.903E+00                                 F               0         Blade 1 Y translation displacement, node 6, m
        135   -7.038E+01                                 F               0         Blade 1 Z translation displacement, node 6, m
        136    7.301E+00                                 F               0         Blade 1 X translation displacement, node 7, m
        137    5.132E+00                                 F               0         Blade 1 Y translation displacement, node 7, m
        138   -7.782E+01                                 F               0         Blade 1 Z translation displacement, node 7, m
        139    6.174E+00                                 F               0         Blade 1 X translation displacement, node 8, m
        140    6.362E+00                                 F               0         Blade 1 Y translation displacement, node 8, m
        141   -8.526E+01                                 F               0         Blade 1 Z translation displacement, node 8, m
        142    5.047E+00                                 F               0         Blade 1 X translation displacement, node 9, m
        143    7.591E+00                                 F               0         Blade 1 Y translation displacement, node 9, m
        144   -9.271E+01                                 F               0         Blade 1 Z translation displacement, node 9, m
        145    3.919E+00                                 F               0         Blade 1 X translation displacement, node 10, m
        146    8.821E+00                                 F               0         Blade 1 Y translation displacement, node 10, m
        147   -1.001E+02                                 F               0         Blade 1 Z translation displacement, node 10, m
        148    2.792E+00                                 F               0         Blade 1 X translation displacement, node 11, m
        149    1.005E+01                                 F               0         Blade 1 Y translation displacement, node 11, m
        150   -1.076E+02                                 F               0         Blade 1 Z translation displacement, node 11, m
        151    1.664E+00                                 F               0         Blade 1 X translation displacement, node 12, m
        152    1.128E+01                                 F               0         Blade 1 Y translation displacement, node 12, m
        153   -1.150E+02                                 F               0         Blade 1 Z translation displacement, node 12, m
        154    5.370E-01                                 F               0         Blade 1 X translation displacement, node 13, m
        155    1.251E+01                                 F               0         Blade 1 Y translation displacement, node 13, m
        156   -1.225E+02                                 F               0         Blade 1 Z translation displacement, node 13, m
        157   -5.903E-01                                 F               0         Blade 1 X translation displacement, node 14, m
        158    1.374E+01                                 F               0         Blade 1 Y translation displacement, node 14, m
        159   -1.299E+02                                 F               0         Blade 1 Z translation displacement, node 14, m
        160   -1.718E+00                                 F               0         Blade 1 X translation displacement, node 15, m
        161    1.497E+01                                 F               0         Blade 1 Y translation displacement, node 15, m
        162   -1.374E+02                                 F               0         Blade 1 Z translation displacement, node 15, m
        163   -2.845E+00                                 F               0         Blade 1 X translation displacement, node 16, m
        164    1.620E+01                                 F               0         Blade 1 Y translation displacement, node 16, m
        165   -1.448E+02                                 F               0         Blade 1 Z translation displacement, node 16, m
        166   -3.973E+00                                 F               0         Blade 1 X translation displacement, node 17, m
        167    1.743E+01                                 F               0         Blade 1 Y translation displacement, node 17, m
        168   -1.522E+02                                 F               0         Blade 1 Z translation displacement, node 17, m
        169   -5.100E+00                                 F               0         Blade 1 X translation displacement, node 18, m
        170    1.866E+01                                 F               0         Blade 1 Y translation displacement, node 18, m
        171   -1.597E+02                                 F               0         Blade 1 Z translation displacement, node 18, m
        172   -6.227E+00                                 F               0         Blade 1 X translation displacement, node 19, m
        173    1.989E+01                                 F               0         Blade 1 Y translation displacement, node 19, m
        174   -1.671E+02                                 F               0         Blade 1 Z translation displacement, node 19, m
        175   -7.355E+00                                 F               0         Blade 1 X translation displacement, node 20, m
        176    2.112E+01                                 F               0         Blade 1 Y translation displacement, node 20, m
        177   -1.746E+02                                 F               0         Blade 1 Z translation displacement, node 20, m
        178   -8.482E+00                                 F               0         Blade 1 X translation displacement, node 21, m
        179    2.235E+01                                 F               0         Blade 1 Y translation displacement, node 21, m
        180   -1.820E+02                                 F               0         Blade 1 Z translation displacement, node 21, m
        181   -9.610E+00                                 F               0         Blade 1 X translation displacement, node 22, m
        182    2.357E+01                                 F               0         Blade 1 Y translation displacement, node 22, m
        183   -1.894E+02                                 F               0         Blade 1 Z translation displacement, node 22, m
        184   -1.074E+01                                 F               0         Blade 1 X translation displacement, node 23, m
        185    2.480E+01                                 F               0         Blade 1 Y translation displacement, node 23, m
        186   -1.969E+02                                 F               0         Blade 1 Z translation displacement, node 23, m
        187   -1.186E+01                                 F               0         Blade 1 X translation displacement, node 24, m
        188    2.603E+01                                 F               0         Blade 1 Y translation displacement, node 24, m
        189   -2.043E+02                                 F               0         Blade 1 Z translation displacement, node 24, m
        190   -1.299E+01                                 F               0         Blade 1 X translation displacement, node 25, m
        191    2.726E+01                                 F               0         Blade 1 Y translation displacement, node 25, m
        192   -2.118E+02                                 F               0         Blade 1 Z translation displacement, node 25, m
        193   -1.412E+01                                 F               0         Blade 1 X translation displacement, node 26, m
        194    2.849E+01                                 F               0         Blade 1 Y translation displacement, node 26, m
        195   -2.192E+02                                 F               0         Blade 1 Z translation displacement, node 26, m
        196   -1.525E+01                                 F               0         Blade 1 X translation displacement, node 27, m
        197    2.972E+01                                 F               0         Blade 1 Y translation displacement, node 27, m
        198   -2.267E+02                                 F               0         Blade 1 Z translation displacement, node 27, m
        199   -1.620E+01                                 F               0         Blade 1 X translation displacement, node 28, m
        200    3.076E+01                                 F               0         Blade 1 Y translation displacement, node 28, m
        201   -2.330E+02                                 F               0         Blade 1 Z translation displacement, node 28, m
        202    8.847E-01,  4.658E-01, -1.863E-02         F               0         Blade 1 X orientation angle, node 1, rad
        203    4.271E-01, -8.258E-01, -3.683E-01         F               0         Blade 1 Y orientation angle, node 1, rad
        204   -1.870E-01,  3.179E-01, -9.295E-01         F               0         Blade 1 Z orientation angle, node 1, rad
        205    8.847E-01,  4.658E-01, -1.863E-02         F               0         Blade 1 X orientation angle, node 2, rad
        206    4.271E-01, -8.258E-01, -3.683E-01         F               0         Blade 1 Y orientation angle, node 2, rad
        207   -1.870E-01,  3.179E-01, -9.295E-01         F               0         Blade 1 Z orientation angle, node 2, rad
        208    9.607E-01,  2.569E-01, -1.054E-01         F               0         Blade 1 X orientation angle, node 3, rad
        209    2.052E-01, -9.127E-01, -3.534E-01         F               0         Blade 1 Y orientation angle, node 3, rad
        210   -1.870E-01,  3.179E-01, -9.295E-01         F               0         Blade 1 Z orientation angle, node 3, rad
        211    9.685E-01,  2.181E-01, -1.202E-01         F               0         Blade 1 X orientation angle, node 4, rad
        212    1.645E-01, -9.227E-01, -3.486E-01         F               0         Blade 1 Y orientation angle, node 4, rad
        213   -1.870E-01,  3.179E-01, -9.295E-01         F               0         Blade 1 Z orientation angle, node 4, rad
        214    9.734E-01,  1.874E-01, -1.317E-01         F               0         Blade 1 X orientation angle, node 5, rad
        215    1.323E-01, -9.294E-01, -3.445E-01         F               0         Blade 1 Y orientation angle, node 5, rad
        216   -1.870E-01,  3.179E-01, -9.295E-01         F               0         Blade 1 Z orientation angle, node 5, rad
        217    9.766E-01,  1.627E-01, -1.408E-01         F               0         Blade 1 X orientation angle, node 6, rad
        218    1.064E-01, -9.341E-01, -3.409E-01         F               0         Blade 1 Y orientation angle, node 6, rad
        219   -1.870E-01,  3.179E-01, -9.295E-01         F               0         Blade 1 Z orientation angle, node 6, rad
        220    9.787E-01,  1.422E-01, -1.482E-01         F               0         Blade 1 X orientation angle, node 7, rad
        221    8.510E-02, -9.374E-01, -3.377E-01         F               0         Blade 1 Y orientation angle, node 7, rad
        222   -1.870E-01,  3.179E-01, -9.295E-01         F               0         Blade 1 Z orientation angle, node 7, rad
        223    9.801E-01,  1.252E-01, -1.543E-01         F               0         Blade 1 X orientation angle, node 8, rad
        224    6.732E-02, -9.398E-01, -3.350E-01         F               0         Blade 1 Y orientation angle, node 8, rad
        225   -1.870E-01,  3.179E-01, -9.295E-01         F               0         Blade 1 Z orientation angle, node 8, rad
        226    9.810E-01,  1.108E-01, -1.594E-01         F               0         Blade 1 X orientation angle, node 9, rad
        227    5.226E-02, -9.416E-01, -3.325E-01         F               0         Blade 1 Y orientation angle, node 9, rad