
Linearized model: Predictions were generated on 12-Jan-2024 at 08:43:17 using OpenFAST, compiled as a 64-bit application using single precision at commit v3.5.1
 linked with  NWTC Subroutine Library; ElastoDyn; InflowWind; AeroDyn; ServoDyn; HydroDyn; MAP++ (<1.20.10>, <Oct-20-2023>)

Description from the FAST input file: CCT-9 Campign 4 model. Input files to be run with OpenFAST 3.5.0. GitHub branch from Lu Wang (https://github.com/luwang00/openfast/tree/dev) compiled on March 7, 2023.

Simulation information:
   Simulation time:                   506.1750 s
   Rotor Speed:                         0.7075 rad/s
   Azimuth:                             1.5026 rad
   Wind Speed:                          8.0000 m/s
   Number of continuous states:        22
   Number of discrete states:           0
   Number of constraint states:         0
   Number of inputs:                 1890
   Number of outputs:                  38
   Jacobians included in this file?    No

Order of continuous states:
   Row/Column Operating Point                     Rotating Frame? Derivative Order Description
   ---------- ---------------                     --------------- ---------------- -----------
          1    5.754E+00                                 F               2         Platform horizontal surge translation DOF (internal DOF index = DOF_Sg), m
          2   -4.680E-01                                 F               2         Platform horizontal sway translation DOF (internal DOF index = DOF_Sw), m
          3   -1.081E-01                                 F               2         Platform vertical heave translation DOF (internal DOF index = DOF_Hv), m
          4    4.599E-02                                 F               2         Platform roll tilt rotation DOF (internal DOF index = DOF_R), rad
          5    8.561E-02                                 F               2         Platform pitch tilt rotation DOF (internal DOF index = DOF_P), rad
          6    2.842E-03                                 F               2         Platform yaw rotation DOF (internal DOF index = DOF_Y), rad
          7    4.679E-01                                 F               2         1st tower fore-aft bending mode DOF (internal DOF index = DOF_TFA1), m
          8    1.798E-01                                 F               2         1st tower side-to-side bending mode DOF (internal DOF index = DOF_TSS1), m
          9    1.459E-03                                 F               2         2nd tower fore-aft bending mode DOF (internal DOF index = DOF_TFA2), m
         10    7.907E-05                                 F               2         2nd tower side-to-side bending mode DOF (internal DOF index = DOF_TSS2), m
         11    6.215E+00                                 F               2         Variable speed generator DOF (internal DOF index = DOF_GeAz), rad
         12   -5.245E-03                                 F               2         First time derivative of Platform horizontal surge translation DOF (internal DOF index = DOF_Sg), m/s
         13    1.288E-03                                 F               2         First time derivative of Platform horizontal sway translation DOF (internal DOF index = DOF_Sw), m/s
         14    3.175E-03                                 F               2         First time derivative of Platform vertical heave translation DOF (internal DOF index = DOF_Hv), m/s
         15   -2.997E-04                                 F               2         First time derivative of Platform roll tilt rotation DOF (internal DOF index = DOF_R), rad/s
         16    6.752E-06                                 F               2         First time derivative of Platform pitch tilt rotation DOF (internal DOF index = DOF_P), rad/s
         17    4.787E-05                                 F               2         First time derivative of Platform yaw rotation DOF (internal DOF index = DOF_Y), rad/s
         18    3.748E-04                                 F               2         First time derivative of 1st tower fore-aft bending mode DOF (internal DOF index = DOF_TFA1), m/s
         19   -1.391E-03                                 F               2         First time derivative of 1st tower side-to-side bending mode DOF (internal DOF index = DOF_TSS1), m/s
         20   -8.347E-07                                 F               2         First time derivative of 2nd tower fore-aft bending mode DOF (internal DOF index = DOF_TFA2), m/s
         21   -1.371E-06                                 F               2         First time derivative of 2nd tower side-to-side bending mode DOF (internal DOF index = DOF_TSS2), m/s
         22    7.075E-01                                 F               2         First time derivative of Variable speed generator DOF (internal DOF index = DOF_GeAz), rad/s

Order of continuous state derivatives:
   Row/Column Operating Point                     Rotating Frame? Derivative Order Description
   ---------- ---------------                     --------------- ---------------- -----------
          1   -5.245E-03                                 F               2         First time derivative of Platform horizontal surge translation DOF (internal DOF index = DOF_Sg), m/s
          2    1.288E-03                                 F               2         First time derivative of Platform horizontal sway translation DOF (internal DOF index = DOF_Sw), m/s
          3    3.175E-03                                 F               2         First time derivative of Platform vertical heave translation DOF (internal DOF index = DOF_Hv), m/s
          4   -2.997E-04                                 F               2         First time derivative of Platform roll tilt rotation DOF (internal DOF index = DOF_R), rad/s
          5    6.752E-06                                 F               2         First time derivative of Platform pitch tilt rotation DOF (internal DOF index = DOF_P), rad/s
          6    4.787E-05                                 F               2         First time derivative of Platform yaw rotation DOF (internal DOF index = DOF_Y), rad/s
          7    3.748E-04                                 F               2         First time derivative of 1st tower fore-aft bending mode DOF (internal DOF index = DOF_TFA1), m/s
          8   -1.391E-03                                 F               2         First time derivative of 1st tower side-to-side bending mode DOF (internal DOF index = DOF_TSS1), m/s
          9   -8.347E-07                                 F               2         First time derivative of 2nd tower fore-aft bending mode DOF (internal DOF index = DOF_TFA2), m/s
         10   -1.371E-06                                 F               2         First time derivative of 2nd tower side-to-side bending mode DOF (internal DOF index = DOF_TSS2), m/s
         11    7.075E-01                                 F               2         First time derivative of Variable speed generator DOF (internal DOF index = DOF_GeAz), rad/s
         12   -5.346E-06                                 F               2         First time derivative of First time derivative of Platform horizontal surge translation DOF (internal DOF index = DOF_Sg), m/s/s
         13   -4.578E-04                                 F               2         First time derivative of First time derivative of Platform horizontal sway translation DOF (internal DOF index = DOF_Sw), m/s/s
         14    2.879E-04                                 F               2         First time derivative of First time derivative of Platform vertical heave translation DOF (internal DOF index = DOF_Hv), m/s/s
         15    1.517E-07                                 F               2         First time derivative of First time derivative of Platform roll tilt rotation DOF (internal DOF index = DOF_R), rad/s/s
         16    9.184E-06                                 F               2         First time derivative of First time derivative of Platform pitch tilt rotation DOF (internal DOF index = DOF_P), rad/s/s
         17   -3.008E-06                                 F               2         First time derivative of First time derivative of Platform yaw rotation DOF (internal DOF index = DOF_Y), rad/s/s
         18   -9.190E-04                                 F               2         First time derivative of First time derivative of 1st tower fore-aft bending mode DOF (internal DOF index = DOF_TFA1), m/s/s
         19    3.118E-05                                 F               2         First time derivative of First time derivative of 1st tower side-to-side bending mode DOF (internal DOF index = DOF_TSS1), m/s/s
         20    2.849E-06                                 F               2         First time derivative of First time derivative of 2nd tower fore-aft bending mode DOF (internal DOF index = DOF_TFA2), m/s/s
         21    2.368E-07                                 F               2         First time derivative of First time derivative of 2nd tower side-to-side bending mode DOF (internal DOF index = DOF_TSS2), m/s/s
         22    1.049E-04                                 F               2         First time derivative of First time derivative of Variable speed generator DOF (internal DOF index = DOF_GeAz), rad/s/s

Order of inputs:
     Column   Operating Point                     Rotating Frame? Derivative Order Description
   ---------- ---------------                     --------------- ---------------- -----------
          1    6.617E+01                                 F               0         Blade 1 X force, node 1, N
          2    2.277E+00                                 F               0         Blade 1 Y force, node 1, N
          3    7.197E+01                                 F               0         Blade 1 Z force, node 1, N
          4    2.359E+02                                 F               0         Blade 1 X force, node 2, N
          5    5.176E+00                                 F               0         Blade 1 Y force, node 2, N
          6    1.004E+02                                 F               0         Blade 1 Z force, node 2, N
          7    2.788E+02                                 F               0         Blade 1 X force, node 3, N
          8    4.808E+00                                 F               0         Blade 1 Y force, node 3, N
          9    4.918E+01                                 F               0         Blade 1 Z force, node 3, N
         10    3.473E+02                                 F               0         Blade 1 X force, node 4, N
         11    5.062E+00                                 F               0         Blade 1 Y force, node 4, N
         12    1.205E+01                                 F               0         Blade 1 Z force, node 4, N
         13    4.158E+02                                 F               0         Blade 1 X force, node 5, N
         14    5.316E+00                                 F               0         Blade 1 Y force, node 5, N
         15   -2.508E+01                                 F               0         Blade 1 Z force, node 5, N
         16    4.843E+02                                 F               0         Blade 1 X force, node 6, N
         17    5.570E+00                                 F               0         Blade 1 Y force, node 6, N
         18   -6.221E+01                                 F               0         Blade 1 Z force, node 6, N
         19    5.528E+02                                 F               0         Blade 1 X force, node 7, N
         20    5.824E+00                                 F               0         Blade 1 Y force, node 7, N
         21   -9.934E+01                                 F               0         Blade 1 Z force, node 7, N
         22    6.213E+02                                 F               0         Blade 1 X force, node 8, N
         23    6.079E+00                                 F               0         Blade 1 Y force, node 8, N
         24   -1.365E+02                                 F               0         Blade 1 Z force, node 8, N
         25    6.898E+02                                 F               0         Blade 1 X force, node 9, N
         26    6.333E+00                                 F               0         Blade 1 Y force, node 9, N
         27   -1.736E+02                                 F               0         Blade 1 Z force, node 9, N
         28    7.583E+02                                 F               0         Blade 1 X force, node 10, N
         29    6.587E+00                                 F               0         Blade 1 Y force, node 10, N
         30   -2.107E+02                                 F               0         Blade 1 Z force, node 10, N
         31    8.268E+02                                 F               0         Blade 1 X force, node 11, N
         32    6.841E+00                                 F               0         Blade 1 Y force, node 11, N
         33   -2.479E+02                                 F               0         Blade 1 Z force, node 11, N
         34    8.953E+02                                 F               0         Blade 1 X force, node 12, N
         35    7.095E+00                                 F               0         Blade 1 Y force, node 12, N
         36   -2.850E+02                                 F               0         Blade 1 Z force, node 12, N
         37    9.638E+02                                 F               0         Blade 1 X force, node 13, N
         38    7.349E+00                                 F               0         Blade 1 Y force, node 13, N
         39   -3.221E+02                                 F               0         Blade 1 Z force, node 13, N
         40    1.032E+03                                 F               0         Blade 1 X force, node 14, N
         41    7.604E+00                                 F               0         Blade 1 Y force, node 14, N
         42   -3.592E+02                                 F               0         Blade 1 Z force, node 14, N
         43    1.101E+03                                 F               0         Blade 1 X force, node 15, N
         44    7.858E+00                                 F               0         Blade 1 Y force, node 15, N
         45   -3.964E+02                                 F               0         Blade 1 Z force, node 15, N
         46    1.169E+03                                 F               0         Blade 1 X force, node 16, N
         47    8.112E+00                                 F               0         Blade 1 Y force, node 16, N
         48   -4.335E+02                                 F               0         Blade 1 Z force, node 16, N
         49    1.437E+03                                 F               0         Blade 1 X force, node 17, N
         50    9.738E+00                                 F               0         Blade 1 Y force, node 17, N
         51   -5.452E+02                                 F               0         Blade 1 Z force, node 17, N
         52    1.111E+03                                 F               0         Blade 1 X force, node 18, N
         53    7.640E+00                                 F               0         Blade 1 Y force, node 18, N
         54   -4.157E+02                                 F               0         Blade 1 Z force, node 18, N
         55    1.385E+03                                 F               0         Blade 1 X force, node 19, N
         56    9.760E+00                                 F               0         Blade 1 Y force, node 19, N
         57   -5.052E+02                                 F               0         Blade 1 Z force, node 19, N
         58    1.197E+03                                 F               0         Blade 1 X force, node 20, N
         59    8.625E+00                                 F               0         Blade 1 Y force, node 20, N
         60   -4.270E+02                                 F               0         Blade 1 Z force, node 20, N
         61    1.796E+03                                 F               0         Blade 1 X force, node 21, N
         62    1.325E+01                                 F               0         Blade 1 Y force, node 21, N
         63   -6.238E+02                                 F               0         Blade 1 Z force, node 21, N
         64    1.608E+03                                 F               0         Blade 1 X force, node 22, N
         65    1.213E+01                                 F               0         Blade 1 Y force, node 22, N
         66   -5.441E+02                                 F               0         Blade 1 Z force, node 22, N
         67    1.672E+03                                 F               0         Blade 1 X force, node 23, N
         68    1.286E+01                                 F               0         Blade 1 Y force, node 23, N
         69   -5.529E+02                                 F               0         Blade 1 Z force, node 23, N
         70    1.766E+03                                 F               0         Blade 1 X force, node 24, N
         71    1.383E+01                                 F               0         Blade 1 Y force, node 24, N
         72   -5.713E+02                                 F               0         Blade 1 Z force, node 24, N
         73    1.830E+03                                 F               0         Blade 1 X force, node 25, N
         74    1.457E+01                                 F               0         Blade 1 Y force, node 25, N
         75   -5.790E+02                                 F               0         Blade 1 Z force, node 25, N
         76    1.903E+03                                 F               0         Blade 1 X force, node 26, N
         77    1.538E+01                                 F               0         Blade 1 Y force, node 26, N
         78   -5.898E+02                                 F               0         Blade 1 Z force, node 26, N
         79    2.303E+03                                 F               0         Blade 1 X force, node 27, N
         80    1.890E+01                                 F               0         Blade 1 Y force, node 27, N
         81   -6.989E+02                                 F               0         Blade 1 Z force, node 27, N
         82    1.723E+03                                 F               0         Blade 1 X force, node 28, N
         83    1.434E+01                                 F               0         Blade 1 Y force, node 28, N
         84   -5.124E+02                                 F               0         Blade 1 Z force, node 28, N
         85    2.123E+03                                 F               0         Blade 1 X force, node 29, N
         86    1.786E+01                                 F               0         Blade 1 Y force, node 29, N
         87   -6.208E+02                                 F               0         Blade 1 Z force, node 29, N
         88    1.819E+03                                 F               0         Blade 1 X force, node 30, N
         89    1.546E+01                                 F               0         Blade 1 Y force, node 30, N
         90   -5.234E+02                                 F               0         Blade 1 Z force, node 30, N
         91    2.647E+03                                 F               0         Blade 1 X force, node 31, N
         92    2.276E+01                                 F               0         Blade 1 Y force, node 31, N
         93   -7.482E+02                                 F               0         Blade 1 Z force, node 31, N
         94    2.342E+03                                 F               0         Blade 1 X force, node 32, N
         95    2.036E+01                                 F               0         Blade 1 Y force, node 32, N
         96   -6.500E+02                                 F               0         Blade 1 Z force, node 32, N
         97    2.414E+03                                 F               0         Blade 1 X force, node 33, N
         98    2.119E+01                                 F               0         Blade 1 Y force, node 33, N
         99   -6.592E+02                                 F               0         Blade 1 Z force, node 33, N
        100    2.487E+03                                 F               0         Blade 1 X force, node 34, N
        101    2.203E+01                                 F               0         Blade 1 Y force, node 34, N
        102   -6.685E+02                                 F               0         Blade 1 Z force, node 34, N
        103    2.560E+03                                 F               0         Blade 1 X force, node 35, N
        104    2.287E+01                                 F               0         Blade 1 Y force, node 35, N
        105   -6.775E+02                                 F               0         Blade 1 Z force, node 35, N
        106    2.631E+03                                 F               0         Blade 1 X force, node 36, N
        107    2.371E+01                                 F               0         Blade 1 Y force, node 36, N
        108   -6.862E+02                                 F               0         Blade 1 Z force, node 36, N
        109    3.164E+03                                 F               0         Blade 1 X force, node 37, N
        110    2.874E+01                                 F               0         Blade 1 Y force, node 37, N
        111   -8.127E+02                                 F               0         Blade 1 Z force, node 37, N
        112    2.316E+03                                 F               0         Blade 1 X force, node 38, N
        113    2.119E+01                                 F               0         Blade 1 Y force, node 38, N
        114   -5.861E+02                                 F               0         Blade 1 Z force, node 38, N
        115    2.849E+03                                 F               0         Blade 1 X force, node 39, N
        116    2.624E+01                                 F               0         Blade 1 Y force, node 39, N
        117   -7.125E+02                                 F               0         Blade 1 Z force, node 39, N
        118    2.438E+03                                 F               0         Blade 1 X force, node 40, N
        119    2.259E+01                                 F               0         Blade 1 Y force, node 40, N
        120   -6.027E+02                                 F               0         Blade 1 Z force, node 40, N
        121    3.477E+03                                 F               0         Blade 1 X force, node 41, N
        122    3.243E+01                                 F               0         Blade 1 Y force, node 41, N
        123   -8.482E+02                                 F               0         Blade 1 Z force, node 41, N
        124    3.065E+03                                 F               0         Blade 1 X force, node 42, N
        125    2.877E+01                                 F               0         Blade 1 Y force, node 42, N
        126   -7.378E+02                                 F               0         Blade 1 Z force, node 42, N
        127    3.136E+03                                 F               0         Blade 1 X force, node 43, N
        128    2.961E+01                                 F               0         Blade 1 Y force, node 43, N
        129   -7.459E+02                                 F               0         Blade 1 Z force, node 43, N
        130    3.225E+03                                 F               0         Blade 1 X force, node 44, N
        131    3.062E+01                                 F               0         Blade 1 Y force, node 44, N
        132   -7.579E+02                                 F               0         Blade 1 Z force, node 44, N
        133    3.262E+03                                 F               0         Blade 1 X force, node 45, N
        134    3.113E+01                                 F               0         Blade 1 Y force, node 45, N
        135   -7.578E+02                                 F               0         Blade 1 Z force, node 45, N
        136    3.350E+03                                 F               0         Blade 1 X force, node 46, N
        137    3.214E+01                                 F               0         Blade 1 Y force, node 46, N
        138   -7.697E+02                                 F               0         Blade 1 Z force, node 46, N
        139    4.023E+03                                 F               0         Blade 1 X force, node 47, N
        140    3.879E+01                                 F               0         Blade 1 Y force, node 47, N
        141   -9.136E+02                                 F               0         Blade 1 Z force, node 47, N
        142    2.891E+03                                 F               0         Blade 1 X force, node 48, N
        143    2.802E+01                                 F               0         Blade 1 Y force, node 48, N
        144   -6.494E+02                                 F               0         Blade 1 Z force, node 48, N
        145    3.563E+03                                 F               0         Blade 1 X force, node 49, N
        146    3.467E+01                                 F               0         Blade 1 Y force, node 49, N
        147   -7.929E+02                                 F               0         Blade 1 Z force, node 49, N
        148    3.055E+03                                 F               0         Blade 1 X force, node 50, N
        149    2.984E+01                                 F               0         Blade 1 Y force, node 50, N
        150   -6.737E+02                                 F               0         Blade 1 Z force, node 50, N
        151    4.283E+03                                 F               0         Blade 1 X force, node 51, N
        152    4.202E+01                                 F               0         Blade 1 Y force, node 51, N
        153   -9.348E+02                                 F               0         Blade 1 Z force, node 51, N
        154    3.776E+03                                 F               0         Blade 1 X force, node 52, N
        155    3.720E+01                                 F               0         Blade 1 Y force, node 52, N
        156   -8.158E+02                                 F               0         Blade 1 Z force, node 52, N
        157    3.848E+03                                 F               0         Blade 1 X force, node 53, N
        158    3.805E+01                                 F               0         Blade 1 Y force, node 53, N
        159   -8.235E+02                                 F               0         Blade 1 Z force, node 53, N
        160    3.962E+03                                 F               0         Blade 1 X force, node 54, N
        161    3.933E+01                                 F               0         Blade 1 Y force, node 54, N
        162   -8.403E+02                                 F               0         Blade 1 Z force, node 54, N
        163    3.947E+03                                 F               0         Blade 1 X force, node 55, N
        164    3.932E+01                                 F               0         Blade 1 Y force, node 55, N
        165   -8.296E+02                                 F               0         Blade 1 Z force, node 55, N
        166    4.061E+03                                 F               0         Blade 1 X force, node 56, N
        167    4.060E+01                                 F               0         Blade 1 Y force, node 56, N
        168   -8.462E+02                                 F               0         Blade 1 Z force, node 56, N
        169    4.880E+03                                 F               0         Blade 1 X force, node 57, N
        170    4.896E+01                                 F               0         Blade 1 Y force, node 57, N
        171   -1.008E+03                                 F               0         Blade 1 Z force, node 57, N
        172    3.455E+03                                 F               0         Blade 1 X force, node 58, N
        173    3.477E+01                                 F               0         Blade 1 Y force, node 58, N
        174   -7.070E+02                                 F               0         Blade 1 Z force, node 58, N
        175    4.274E+03                                 F               0         Blade 1 X force, node 59, N
        176    4.314E+01                                 F               0         Blade 1 Y force, node 59, N
        177   -8.684E+02                                 F               0         Blade 1 Z force, node 59, N
        178    3.679E+03                                 F               0         Blade 1 X force, node 60, N
        179    3.724E+01                                 F               0         Blade 1 Y force, node 60, N
        180   -7.422E+02                                 F               0         Blade 1 Z force, node 60, N
        181    5.081E+03                                 F               0         Blade 1 X force, node 61, N
        182    5.158E+01                                 F               0         Blade 1 Y force, node 61, N
        183   -1.017E+03                                 F               0         Blade 1 Z force, node 61, N
        184    4.484E+03                                 F               0         Blade 1 X force, node 62, N