
Linearized model: Predictions were generated on 12-Jan-2024 at 08:43:17 using OpenFAST, compiled as a 64-bit application using single precision at commit v3.5.1
 linked with  NWTC Subroutine Library; ElastoDyn; InflowWind; AeroDyn; ServoDyn; HydroDyn; MAP++ (<1.20.10>, <Oct-20-2023>)

Description from the FAST input file: CCT-9 Campign 4 model. Input files to be run with OpenFAST 3.5.0. GitHub branch from Lu Wang (https://github.com/luwang00/openfast/tree/dev) compiled on March 7, 2023.

Simulation information:
   Simulation time:                   507.6750 s
   Rotor Speed:                         0.7077 rad/s
   Azimuth:                             2.5640 rad
   Wind Speed:                          8.0000 m/s
   Number of continuous states:         0
   Number of discrete states:           0
   Number of constraint states:         0
   Number of inputs:                  303
   Number of outputs:                   1
   Jacobians included in this file?    No

Order of inputs:
     Column   Operating Point                     Rotating Frame? Derivative Order Description
   ---------- ---------------                     --------------- ---------------- -----------
          1   -1.080E+01                                 F               0         X-component position of node 1 (hub), m
          2    0.000E+00                                 F               0         Y-component position of node 1 (hub), m
          3    1.497E+02                                 F               0         Z-component position of node 1 (hub), m
          4    7.372E+00                                 F               0         X-component position of node 2 (blade 1, node 1), m
          5   -1.029E+01                                 F               0         Y-component position of node 2 (blade 1, node 1), m
          6    1.452E+02                                 F               0         Z-component position of node 2 (blade 1, node 1), m
          7    7.155E+00                                 F               0         X-component position of node 3 (blade 1, node 2), m
          8   -1.097E+01                                 F               0         Y-component position of node 3 (blade 1, node 2), m
          9    1.440E+02                                 F               0         Z-component position of node 3 (blade 1, node 2), m
         10    4.209E+00                                 F               0         X-component position of node 4 (blade 1, node 3), m
         11   -2.016E+01                                 F               0         Y-component position of node 4 (blade 1, node 3), m
         12    1.287E+02                                 F               0         Z-component position of node 4 (blade 1, node 3), m
         13    3.582E+00                                 F               0         X-component position of node 5 (blade 1, node 4), m
         14   -2.212E+01                                 F               0         Y-component position of node 5 (blade 1, node 4), m
         15    1.254E+02                                 F               0         Z-component position of node 5 (blade 1, node 4), m
         16    2.954E+00                                 F               0         X-component position of node 6 (blade 1, node 5), m
         17   -2.408E+01                                 F               0         Y-component position of node 6 (blade 1, node 5), m
         18    1.221E+02                                 F               0         Z-component position of node 6 (blade 1, node 5), m
         19    2.327E+00                                 F               0         X-component position of node 7 (blade 1, node 6), m
         20   -2.603E+01                                 F               0         Y-component position of node 7 (blade 1, node 6), m
         21    1.188E+02                                 F               0         Z-component position of node 7 (blade 1, node 6), m
         22    1.699E+00                                 F               0         X-component position of node 8 (blade 1, node 7), m
         23   -2.799E+01                                 F               0         Y-component position of node 8 (blade 1, node 7), m
         24    1.156E+02                                 F               0         Z-component position of node 8 (blade 1, node 7), m
         25    1.071E+00                                 F               0         X-component position of node 9 (blade 1, node 8), m
         26   -2.995E+01                                 F               0         Y-component position of node 9 (blade 1, node 8), m
         27    1.123E+02                                 F               0         Z-component position of node 9 (blade 1, node 8), m
         28    4.439E-01                                 F               0         X-component position of node 10 (blade 1, node 9), m
         29   -3.191E+01                                 F               0         Y-component position of node 10 (blade 1, node 9), m
         30    1.090E+02                                 F               0         Z-component position of node 10 (blade 1, node 9), m
         31   -1.837E-01                                 F               0         X-component position of node 11 (blade 1, node 10), m
         32   -3.387E+01                                 F               0         Y-component position of node 11 (blade 1, node 10), m
         33    1.057E+02                                 F               0         Z-component position of node 11 (blade 1, node 10), m
         34   -8.112E-01                                 F               0         X-component position of node 12 (blade 1, node 11), m
         35   -3.583E+01                                 F               0         Y-component position of node 12 (blade 1, node 11), m
         36    1.025E+02                                 F               0         Z-component position of node 12 (blade 1, node 11), m
         37   -1.439E+00                                 F               0         X-component position of node 13 (blade 1, node 12), m
         38   -3.779E+01                                 F               0         Y-component position of node 13 (blade 1, node 12), m
         39    9.919E+01                                 F               0         Z-component position of node 13 (blade 1, node 12), m
         40   -2.066E+00                                 F               0         X-component position of node 14 (blade 1, node 13), m
         41   -3.975E+01                                 F               0         Y-component position of node 14 (blade 1, node 13), m
         42    9.591E+01                                 F               0         Z-component position of node 14 (blade 1, node 13), m
         43   -2.694E+00                                 F               0         X-component position of node 15 (blade 1, node 14), m
         44   -4.170E+01                                 F               0         Y-component position of node 15 (blade 1, node 14), m
         45    9.264E+01                                 F               0         Z-component position of node 15 (blade 1, node 14), m
         46   -3.322E+00                                 F               0         X-component position of node 16 (blade 1, node 15), m
         47   -4.366E+01                                 F               0         Y-component position of node 16 (blade 1, node 15), m
         48    8.936E+01                                 F               0         Z-component position of node 16 (blade 1, node 15), m
         49   -3.949E+00                                 F               0         X-component position of node 17 (blade 1, node 16), m
         50   -4.562E+01                                 F               0         Y-component position of node 17 (blade 1, node 16), m
         51    8.608E+01                                 F               0         Z-component position of node 17 (blade 1, node 16), m
         52   -4.577E+00                                 F               0         X-component position of node 18 (blade 1, node 17), m
         53   -4.758E+01                                 F               0         Y-component position of node 18 (blade 1, node 17), m
         54    8.281E+01                                 F               0         Z-component position of node 18 (blade 1, node 17), m
         55   -5.204E+00                                 F               0         X-component position of node 19 (blade 1, node 18), m
         56   -4.954E+01                                 F               0         Y-component position of node 19 (blade 1, node 18), m
         57    7.953E+01                                 F               0         Z-component position of node 19 (blade 1, node 18), m
         58   -5.832E+00                                 F               0         X-component position of node 20 (blade 1, node 19), m
         59   -5.150E+01                                 F               0         Y-component position of node 20 (blade 1, node 19), m
         60    7.626E+01                                 F               0         Z-component position of node 20 (blade 1, node 19), m
         61   -6.460E+00                                 F               0         X-component position of node 21 (blade 1, node 20), m
         62   -5.346E+01                                 F               0         Y-component position of node 21 (blade 1, node 20), m
         63    7.298E+01                                 F               0         Z-component position of node 21 (blade 1, node 20), m
         64   -7.087E+00                                 F               0         X-component position of node 22 (blade 1, node 21), m
         65   -5.541E+01                                 F               0         Y-component position of node 22 (blade 1, node 21), m
         66    6.971E+01                                 F               0         Z-component position of node 22 (blade 1, node 21), m
         67   -7.715E+00                                 F               0         X-component position of node 23 (blade 1, node 22), m
         68   -5.737E+01                                 F               0         Y-component position of node 23 (blade 1, node 22), m
         69    6.643E+01                                 F               0         Z-component position of node 23 (blade 1, node 22), m
         70   -8.342E+00                                 F               0         X-component position of node 24 (blade 1, node 23), m
         71   -5.933E+01                                 F               0         Y-component position of node 24 (blade 1, node 23), m
         72    6.316E+01                                 F               0         Z-component position of node 24 (blade 1, node 23), m
         73   -8.970E+00                                 F               0         X-component position of node 25 (blade 1, node 24), m
         74   -6.129E+01                                 F               0         Y-component position of node 25 (blade 1, node 24), m
         75    5.988E+01                                 F               0         Z-component position of node 25 (blade 1, node 24), m
         76   -9.598E+00                                 F               0         X-component position of node 26 (blade 1, node 25), m
         77   -6.325E+01                                 F               0         Y-component position of node 26 (blade 1, node 25), m
         78    5.660E+01                                 F               0         Z-component position of node 26 (blade 1, node 25), m
         79   -1.023E+01                                 F               0         X-component position of node 27 (blade 1, node 26), m
         80   -6.521E+01                                 F               0         Y-component position of node 27 (blade 1, node 26), m
         81    5.333E+01                                 F               0         Z-component position of node 27 (blade 1, node 26), m
         82   -1.085E+01                                 F               0         X-component position of node 28 (blade 1, node 27), m
         83   -6.717E+01                                 F               0         Y-component position of node 28 (blade 1, node 27), m
         84    5.005E+01                                 F               0         Z-component position of node 28 (blade 1, node 27), m
         85   -1.138E+01                                 F               0         X-component position of node 29 (blade 1, node 28), m
         86   -6.883E+01                                 F               0         Y-component position of node 29 (blade 1, node 28), m
         87    4.728E+01                                 F               0         Z-component position of node 29 (blade 1, node 28), m
         88    8.208E+00                                 F               0         X-component position of node 30 (blade 2, node 1), m
         89   -1.945E+00                                 F               0         Y-component position of node 30 (blade 2, node 1), m
         90    1.498E+02                                 F               0         Z-component position of node 30 (blade 2, node 1), m
         91    8.193E+00                                 F               0         X-component position of node 31 (blade 2, node 2), m
         92   -6.105E-01                                 F               0         Y-component position of node 31 (blade 2, node 2), m
         93    1.498E+02                                 F               0         Z-component position of node 31 (blade 2, node 2), m
         94    7.989E+00                                 F               0         X-component position of node 32 (blade 2, node 3), m
         95    1.754E+01                                 F               0         Y-component position of node 32 (blade 2, node 3), m
         96    1.497E+02                                 F               0         Z-component position of node 32 (blade 2, node 3), m
         97    7.945E+00                                 F               0         X-component position of node 33 (blade 2, node 4), m
         98    2.141E+01                                 F               0         Y-component position of node 33 (blade 2, node 4), m
         99    1.497E+02                                 F               0         Z-component position of node 33 (blade 2, node 4), m
        100    7.902E+00                                 F               0         X-component position of node 34 (blade 2, node 5), m
        101    2.528E+01                                 F               0         Y-component position of node 34 (blade 2, node 5), m
        102    1.497E+02                                 F               0         Z-component position of node 34 (blade 2, node 5), m
        103    7.858E+00                                 F               0         X-component position of node 35 (blade 2, node 6), m
        104    2.914E+01                                 F               0         Y-component position of node 35 (blade 2, node 6), m
        105    1.497E+02                                 F               0         Z-component position of node 35 (blade 2, node 6), m
        106    7.815E+00                                 F               0         X-component position of node 36 (blade 2, node 7), m
        107    3.301E+01                                 F               0         Y-component position of node 36 (blade 2, node 7), m
        108    1.496E+02                                 F               0         Z-component position of node 36 (blade 2, node 7), m
        109    7.771E+00                                 F               0         X-component position of node 37 (blade 2, node 8), m
        110    3.688E+01                                 F               0         Y-component position of node 37 (blade 2, node 8), m
        111    1.496E+02                                 F               0         Z-component position of node 37 (blade 2, node 8), m
        112    7.728E+00                                 F               0         X-component position of node 38 (blade 2, node 9), m
        113    4.075E+01                                 F               0         Y-component position of node 38 (blade 2, node 9), m
        114    1.496E+02                                 F               0         Z-component position of node 38 (blade 2, node 9), m
        115    7.684E+00                                 F               0         X-component position of node 39 (blade 2, node 10), m
        116    4.461E+01                                 F               0         Y-component position of node 39 (blade 2, node 10), m
        117    1.496E+02                                 F               0         Z-component position of node 39 (blade 2, node 10), m
        118    7.641E+00                                 F               0         X-component position of node 40 (blade 2, node 11), m
        119    4.848E+01                                 F               0         Y-component position of node 40 (blade 2, node 11), m
        120    1.496E+02                                 F               0         Z-component position of node 40 (blade 2, node 11), m
        121    7.597E+00                                 F               0         X-component position of node 41 (blade 2, node 12), m
        122    5.235E+01                                 F               0         Y-component position of node 41 (blade 2, node 12), m
        123    1.495E+02                                 F               0         Z-component position of node 41 (blade 2, node 12), m
        124    7.553E+00                                 F               0         X-component position of node 42 (blade 2, node 13), m
        125    5.621E+01                                 F               0         Y-component position of node 42 (blade 2, node 13), m
        126    1.495E+02                                 F               0         Z-component position of node 42 (blade 2, node 13), m
        127    7.510E+00                                 F               0         X-component position of node 43 (blade 2, node 14), m
        128    6.008E+01                                 F               0         Y-component position of node 43 (blade 2, node 14), m
        129    1.495E+02                                 F               0         Z-component position of node 43 (blade 2, node 14), m
        130    7.466E+00                                 F               0         X-component position of node 44 (blade 2, node 15), m
        131    6.395E+01                                 F               0         Y-component position of node 44 (blade 2, node 15), m
        132    1.495E+02                                 F               0         Z-component position of node 44 (blade 2, node 15), m
        133    7.423E+00                                 F               0         X-component position of node 45 (blade 2, node 16), m
        134    6.782E+01                                 F               0         Y-component position of node 45 (blade 2, node 16), m
        135    1.495E+02                                 F               0         Z-component position of node 45 (blade 2, node 16), m
        136    7.379E+00                                 F               0         X-component position of node 46 (blade 2, node 17), m
        137    7.168E+01                                 F               0         Y-component position of node 46 (blade 2, node 17), m
        138    1.494E+02                                 F               0         Z-component position of node 46 (blade 2, node 17), m
        139    7.336E+00                                 F               0         X-component position of node 47 (blade 2, node 18), m
        140    7.555E+01                                 F               0         Y-component position of node 47 (blade 2, node 18), m
        141    1.494E+02                                 F               0         Z-component position of node 47 (blade 2, node 18), m
        142    7.292E+00                                 F               0         X-component position of node 48 (blade 2, node 19), m
        143    7.942E+01                                 F               0         Y-component position of node 48 (blade 2, node 19), m
        144    1.494E+02                                 F               0         Z-component position of node 48 (blade 2, node 19), m
        145    7.249E+00                                 F               0         X-component position of node 49 (blade 2, node 20), m
        146    8.329E+01                                 F               0         Y-component position of node 49 (blade 2, node 20), m
        147    1.494E+02                                 F               0         Z-component position of node 49 (blade 2, node 20), m
        148    7.205E+00                                 F               0         X-component position of node 50 (blade 2, node 21), m
        149    8.715E+01                                 F               0         Y-component position of node 50 (blade 2, node 21), m
        150    1.494E+02                                 F               0         Z-component position of node 50 (blade 2, node 21), m
        151    7.162E+00                                 F               0         X-component position of node 51 (blade 2, node 22), m
        152    9.102E+01                                 F               0         Y-component position of node 51 (blade 2, node 22), m
        153    1.493E+02                                 F               0         Z-component position of node 51 (blade 2, node 22), m
        154    7.118E+00                                 F               0         X-component position of node 52 (blade 2, node 23), m
        155    9.489E+01                                 F               0         Y-component position of node 52 (blade 2, node 23), m
        156    1.493E+02                                 F               0         Z-component position of node 52 (blade 2, node 23), m
        157    7.075E+00                                 F               0         X-component position of node 53 (blade 2, node 24), m
        158    9.876E+01                                 F               0         Y-component position of node 53 (blade 2, node 24), m
        159    1.493E+02                                 F               0         Z-component position of node 53 (blade 2, node 24), m
        160    7.031E+00                                 F               0         X-component position of node 54 (blade 2, node 25), m
        161    1.026E+02                                 F               0         Y-component position of node 54 (blade 2, node 25), m
        162    1.493E+02                                 F               0         Z-component position of node 54 (blade 2, node 25), m
        163    6.987E+00                                 F               0         X-component position of node 55 (blade 2, node 26), m
        164    1.065E+02                                 F               0         Y-component position of node 55 (blade 2, node 26), m
        165    1.492E+02                                 F               0         Z-component position of node 55 (blade 2, node 26), m
        166    6.944E+00                                 F               0         X-component position of node 56 (blade 2, node 27), m
        167    1.104E+02                                 F               0         Y-component position of node 56 (blade 2, node 27), m
        168    1.492E+02                                 F               0         Z-component position of node 56 (blade 2, node 27), m
        169    6.907E+00                                 F               0         X-component position of node 57 (blade 2, node 28), m
        170    1.136E+02                                 F               0         Y-component position of node 57 (blade 2, node 28), m
        171    1.492E+02                                 F               0         Z-component position of node 57 (blade 2, node 28), m
        172    9.232E+00                                 F               0         X-component position of node 58 (blade 3, node 1), m
        173   -1.022E+01                                 F               0         Y-component position of node 58 (blade 3, node 1), m
        174    1.546E+02                                 F               0         Z-component position of node 58 (blade 3, node 1), m
        175    9.463E+00                                 F               0         X-component position of node 59 (blade 3, node 2), m
        176   -1.088E+01                                 F               0         Y-component position of node 59 (blade 3, node 2), m
        177    1.557E+02                                 F               0         Z-component position of node 59 (blade 3, node 2), m
        178    1.261E+01                                 F               0         X-component position of node 60 (blade 3, node 3), m
        179   -1.984E+01                                 F               0         Y-component position of node 60 (blade 3, node 3), m
        180    1.712E+02                                 F               0         Z-component position of node 60 (blade 3, node 3), m
        181    1.328E+01                                 F               0         X-component position of node 61 (blade 3, node 4), m
        182   -2.174E+01                                 F               0         Y-component position of node 61 (blade 3, node 4), m
        183    1.745E+02                                 F               0         Z-component position of node 61 (blade 3, node 4), m
        184    1.396E+01                                 F               0         X-component position of node 62 (blade 3, node 5), m
        185   -2.365E+01                                 F               0         Y-component position of node 62 (blade 3, node 5), m
        186    1.778E+02                                 F               0         Z-component position of node 62 (blade 3, node 5), m
        187    1.463E+01                                 F               0         X-component position of node 63 (blade 3, node 6), m
        188   -2.556E+01                                 F               0         Y-component position of node 63 (blade 3, node 6), m
        189    1.811E+02                                 F               0         Z-component position of node 63 (blade 3, node 6), m
        190    1.530E+01                                 F               0         X-component position of node 64 (blade 3, node 7), m
        191   -2.747E+01                                 F               0         Y-component position of node 64 (blade 3, node 7), m
        192    1.844E+02                                 F               0         Z-component position of node 64 (blade 3, node 7), m
        193    1.597E+01                                 F               0         X-component position of node 65 (blade 3, node 8), m
        194   -2.938E+01                                 F               0         Y-component position of node 65 (blade 3, node 8), m
        195    1.877E+02                                 F               0         Z-component position of node 65 (blade 3, node 8), m
        196    1.664E+01                                 F               0         X-component position of node 66 (blade 3, node 9), m
        197   -3.129E+01                                 F               0         Y-component position of node 66 (blade 3, node 9), m
        198    1.910E+02                                 F               0         Z-component position of node 66 (blade 3, node 9), m
        199    1.731E+01                                 F               0         X-component position of node 67 (blade 3, node 10), m
        200   -3.320E+01                                 F               0         Y-component position of node 67 (blade 3, node 10), m
        201    1.943E+02                                 F               0         Z-component position of node 67 (blade 3, node 10), m
        202    1.798E+01                                 F               0         X-component position of node 68 (blade 3, node 11), m
        203   -3.511E+01                                 F               0         Y-component position of node 68 (blade 3, node 11), m
        204    1.976E+02                                 F               0         Z-component position of node 68 (blade 3, node 11), m
        205    1.865E+01                                 F               0         X-component position of node 69 (blade 3, node 12), m
        206   -3.702E+01                                 F               0         Y-component position of node 69 (blade 3, node 12), m
        207    2.009E+02                                 F               0         Z-component position of node 69 (blade 3, node 12), m
        208    1.932E+01                                 F               0         X-component position of node 70 (blade 3, node 13), m
        209   -3.892E+01                                 F               0         Y-component position of node 70 (blade 3, node 13), m
        210    2.042E+02                                 F               0         Z-component position of node 70 (blade 3, node 13), m
        211    2.000E+01                                 F               0         X-component position of node 71 (blade 3, node 14), m