
Linearized model: Predictions were generated on 12-Jan-2024 at 08:43:17 using OpenFAST, compiled as a 64-bit application using single precision at commit v3.5.1
 linked with  NWTC Subroutine Library; ElastoDyn; InflowWind; AeroDyn; ServoDyn; HydroDyn; MAP++ (<1.20.10>, <Oct-20-2023>)

Description from the FAST input file: CCT-9 Campign 4 model. Input files to be run with OpenFAST 3.5.0. GitHub branch from Lu Wang (https://github.com/luwang00/openfast/tree/dev) compiled on March 7, 2023.

Simulation information:
   Simulation time:                   508.6500 s
   Rotor Speed:                         0.7079 rad/s
   Azimuth:                             3.2541 rad
   Wind Speed:                          8.0000 m/s
   Number of continuous states:        22
   Number of discrete states:           0
   Number of constraint states:         0
   Number of inputs:                 3988
   Number of outputs:                  58
   Jacobians included in this file?    No

Order of continuous states:
   Row/Column Operating Point                     Rotating Frame? Derivative Order Description
   ---------- ---------------                     --------------- ---------------- -----------
          1    5.741E+00                                 F               2         ED Platform horizontal surge translation DOF (internal DOF index = DOF_Sg), m
          2   -4.667E-01                                 F               2         ED Platform horizontal sway translation DOF (internal DOF index = DOF_Sw), m
          3   -1.003E-01                                 F               2         ED Platform vertical heave translation DOF (internal DOF index = DOF_Hv), m
          4    4.531E-02                                 F               2         ED Platform roll tilt rotation DOF (internal DOF index = DOF_R), rad
          5    8.564E-02                                 F               2         ED Platform pitch tilt rotation DOF (internal DOF index = DOF_P), rad
          6    2.951E-03                                 F               2         ED Platform yaw rotation DOF (internal DOF index = DOF_Y), rad
          7    4.674E-01                                 F               2         ED 1st tower fore-aft bending mode DOF (internal DOF index = DOF_TFA1), m
          8    1.757E-01                                 F               2         ED 1st tower side-to-side bending mode DOF (internal DOF index = DOF_TSS1), m
          9    1.464E-03                                 F               2         ED 2nd tower fore-aft bending mode DOF (internal DOF index = DOF_TFA2), m
         10    7.717E-05                                 F               2         ED 2nd tower side-to-side bending mode DOF (internal DOF index = DOF_TSS2), m
         11    1.683E+00                                 F               2         ED Variable speed generator DOF (internal DOF index = DOF_GeAz), rad
         12   -5.423E-03                                 F               2         ED First time derivative of Platform horizontal surge translation DOF (internal DOF index = DOF_Sg), m/s
         13   -2.496E-04                                 F               2         ED First time derivative of Platform horizontal sway translation DOF (internal DOF index = DOF_Sw), m/s
         14    2.702E-03                                 F               2         ED First time derivative of Platform vertical heave translation DOF (internal DOF index = DOF_Hv), m/s
         15   -2.383E-04                                 F               2         ED First time derivative of Platform roll tilt rotation DOF (internal DOF index = DOF_R), rad/s
         16    1.068E-05                                 F               2         ED First time derivative of Platform pitch tilt rotation DOF (internal DOF index = DOF_P), rad/s
         17    3.776E-05                                 F               2         ED First time derivative of Platform yaw rotation DOF (internal DOF index = DOF_Y), rad/s
         18    4.797E-04                                 F               2         ED First time derivative of 1st tower fore-aft bending mode DOF (internal DOF index = DOF_TFA1), m/s
         19   -1.837E-03                                 F               2         ED First time derivative of 1st tower side-to-side bending mode DOF (internal DOF index = DOF_TSS1), m/s
         20   -9.503E-07                                 F               2         ED First time derivative of 2nd tower fore-aft bending mode DOF (internal DOF index = DOF_TFA2), m/s
         21   -1.879E-07                                 F               2         ED First time derivative of 2nd tower side-to-side bending mode DOF (internal DOF index = DOF_TSS2), m/s
         22    7.079E-01                                 F               2         ED First time derivative of Variable speed generator DOF (internal DOF index = DOF_GeAz), rad/s

Order of continuous state derivatives:
   Row/Column Operating Point                     Rotating Frame? Derivative Order Description
   ---------- ---------------                     --------------- ---------------- -----------
          1   -5.423E-03                                 F               2         First time derivative of ED Platform horizontal surge translation DOF (internal DOF index = DOF_Sg), m/s
          2   -2.496E-04                                 F               2         First time derivative of ED Platform horizontal sway translation DOF (internal DOF index = DOF_Sw), m/s
          3    2.702E-03                                 F               2         First time derivative of ED Platform vertical heave translation DOF (internal DOF index = DOF_Hv), m/s
          4   -2.383E-04                                 F               2         First time derivative of ED Platform roll tilt rotation DOF (internal DOF index = DOF_R), rad/s
          5    1.068E-05                                 F               2         First time derivative of ED Platform pitch tilt rotation DOF (internal DOF index = DOF_P), rad/s
          6    3.776E-05                                 F               2         First time derivative of ED Platform yaw rotation DOF (internal DOF index = DOF_Y), rad/s
          7    4.797E-04                                 F               2         First time derivative of ED 1st tower fore-aft bending mode DOF (internal DOF index = DOF_TFA1), m/s
          8   -1.837E-03                                 F               2         First time derivative of ED 1st tower side-to-side bending mode DOF (internal DOF index = DOF_TSS1), m/s
          9   -9.503E-07                                 F               2         First time derivative of ED 2nd tower fore-aft bending mode DOF (internal DOF index = DOF_TFA2), m/s
         10   -1.879E-07                                 F               2         First time derivative of ED 2nd tower side-to-side bending mode DOF (internal DOF index = DOF_TSS2), m/s
         11    7.079E-01                                 F               2         First time derivative of ED Variable speed generator DOF (internal DOF index = DOF_GeAz), rad/s
         12   -1.019E-04                                 F               2         First time derivative of ED First time derivative of Platform horizontal surge translation DOF (internal DOF index = DOF_Sg), m/s/s
         13   -6.023E-04                                 F               2         First time derivative of ED First time derivative of Platform horizontal sway translation DOF (internal DOF index = DOF_Sw), m/s/s
         14   -6.691E-04                                 F               2         First time derivative of ED First time derivative of Platform vertical heave translation DOF (internal DOF index = DOF_Hv), m/s/s
         15    3.739E-05                                 F               2         First time derivative of ED First time derivative of Platform roll tilt rotation DOF (internal DOF index = DOF_R), rad/s/s
         16   -3.598E-06                                 F               2         First time derivative of ED First time derivative of Platform pitch tilt rotation DOF (internal DOF index = DOF_P), rad/s/s
         17   -7.599E-06                                 F               2         First time derivative of ED First time derivative of Platform yaw rotation DOF (internal DOF index = DOF_Y), rad/s/s
         18    4.265E-04                                 F               2         First time derivative of ED First time derivative of 1st tower fore-aft bending mode DOF (internal DOF index = DOF_TFA1), m/s/s
         19    1.578E-04                                 F               2         First time derivative of ED First time derivative of 1st tower side-to-side bending mode DOF (internal DOF index = DOF_TSS1), m/s/s
         20    4.865E-08                                 F               2         First time derivative of ED First time derivative of 2nd tower fore-aft bending mode DOF (internal DOF index = DOF_TFA2), m/s/s
         21    8.811E-07                                 F               2         First time derivative of ED First time derivative of 2nd tower side-to-side bending mode DOF (internal DOF index = DOF_TSS2), m/s/s
         22    1.111E-04                                 F               2         First time derivative of ED First time derivative of Variable speed generator DOF (internal DOF index = DOF_GeAz), rad/s/s

Order of inputs:
     Column   Operating Point                     Rotating Frame? Derivative Order Description
   ---------- ---------------                     --------------- ---------------- -----------
          1   -1.080E+01                                 F               0         IfW X-component position of node 1 (hub), m
          2    0.000E+00                                 F               0         IfW Y-component position of node 1 (hub), m
          3    1.497E+02                                 F               0         IfW Z-component position of node 1 (hub), m
          4    7.198E+00                                 F               0         IfW X-component position of node 2 (blade 1, node 1), m
          5   -6.570E+00                                 F               0         IfW Y-component position of node 2 (blade 1, node 1), m
          6    1.445E+02                                 F               0         IfW Z-component position of node 2 (blade 1, node 1), m
          7    6.940E+00                                 F               0         IfW X-component position of node 3 (blade 1, node 2), m
          8   -6.359E+00                                 F               0         IfW Y-component position of node 3 (blade 1, node 2), m
          9    1.432E+02                                 F               0         IfW Z-component position of node 3 (blade 1, node 2), m
         10    3.435E+00                                 F               0         IfW X-component position of node 4 (blade 1, node 3), m
         11   -3.489E+00                                 F               0         IfW Y-component position of node 4 (blade 1, node 3), m
         12    1.256E+02                                 F               0         IfW Z-component position of node 4 (blade 1, node 3), m
         13    2.689E+00                                 F               0         IfW X-component position of node 5 (blade 1, node 4), m
         14   -2.877E+00                                 F               0         IfW Y-component position of node 5 (blade 1, node 4), m
         15    1.219E+02                                 F               0         IfW Z-component position of node 5 (blade 1, node 4), m
         16    1.942E+00                                 F               0         IfW X-component position of node 6 (blade 1, node 5), m
         17   -2.266E+00                                 F               0         IfW Y-component position of node 6 (blade 1, node 5), m
         18    1.181E+02                                 F               0         IfW Z-component position of node 6 (blade 1, node 5), m
         19    1.195E+00                                 F               0         IfW X-component position of node 7 (blade 1, node 6), m
         20   -1.654E+00                                 F               0         IfW Y-component position of node 7 (blade 1, node 6), m
         21    1.144E+02                                 F               0         IfW Z-component position of node 7 (blade 1, node 6), m
         22    4.485E-01                                 F               0         IfW X-component position of node 8 (blade 1, node 7), m
         23   -1.043E+00                                 F               0         IfW Y-component position of node 8 (blade 1, node 7), m
         24    1.106E+02                                 F               0         IfW Z-component position of node 8 (blade 1, node 7), m
         25   -2.983E-01                                 F               0         IfW X-component position of node 9 (blade 1, node 8), m
         26   -4.314E-01                                 F               0         IfW Y-component position of node 9 (blade 1, node 8), m
         27    1.069E+02                                 F               0         IfW Z-component position of node 9 (blade 1, node 8), m
         28   -1.045E+00                                 F               0         IfW X-component position of node 10 (blade 1, node 9), m
         29    1.801E-01                                 F               0         IfW Y-component position of node 10 (blade 1, node 9), m
         30    1.032E+02                                 F               0         IfW Z-component position of node 10 (blade 1, node 9), m
         31   -1.792E+00                                 F               0         IfW X-component position of node 11 (blade 1, node 10), m
         32    7.915E-01                                 F               0         IfW Y-component position of node 11 (blade 1, node 10), m
         33    9.941E+01                                 F               0         IfW Z-component position of node 11 (blade 1, node 10), m
         34   -2.538E+00                                 F               0         IfW X-component position of node 12 (blade 1, node 11), m
         35    1.403E+00                                 F               0         IfW Y-component position of node 12 (blade 1, node 11), m
         36    9.567E+01                                 F               0         IfW Z-component position of node 12 (blade 1, node 11), m
         37   -3.285E+00                                 F               0         IfW X-component position of node 13 (blade 1, node 12), m
         38    2.015E+00                                 F               0         IfW Y-component position of node 13 (blade 1, node 12), m
         39    9.192E+01                                 F               0         IfW Z-component position of node 13 (blade 1, node 12), m
         40   -4.032E+00                                 F               0         IfW X-component position of node 14 (blade 1, node 13), m
         41    2.626E+00                                 F               0         IfW Y-component position of node 14 (blade 1, node 13), m
         42    8.818E+01                                 F               0         IfW Z-component position of node 14 (blade 1, node 13), m
         43   -4.779E+00                                 F               0         IfW X-component position of node 15 (blade 1, node 14), m
         44    3.237E+00                                 F               0         IfW Y-component position of node 15 (blade 1, node 14), m
         45    8.443E+01                                 F               0         IfW Z-component position of node 15 (blade 1, node 14), m
         46   -5.526E+00                                 F               0         IfW X-component position of node 16 (blade 1, node 15), m
         47    3.849E+00                                 F               0         IfW Y-component position of node 16 (blade 1, node 15), m
         48    8.069E+01                                 F               0         IfW Z-component position of node 16 (blade 1, node 15), m
         49   -6.272E+00                                 F               0         IfW X-component position of node 17 (blade 1, node 16), m
         50    4.461E+00                                 F               0         IfW Y-component position of node 17 (blade 1, node 16), m
         51    7.694E+01                                 F               0         IfW Z-component position of node 17 (blade 1, node 16), m
         52   -7.019E+00                                 F               0         IfW X-component position of node 18 (blade 1, node 17), m
         53    5.072E+00                                 F               0         IfW Y-component position of node 18 (blade 1, node 17), m
         54    7.320E+01                                 F               0         IfW Z-component position of node 18 (blade 1, node 17), m
         55   -7.766E+00                                 F               0         IfW X-component position of node 19 (blade 1, node 18), m
         56    5.683E+00                                 F               0         IfW Y-component position of node 19 (blade 1, node 18), m
         57    6.945E+01                                 F               0         IfW Z-component position of node 19 (blade 1, node 18), m
         58   -8.512E+00                                 F               0         IfW X-component position of node 20 (blade 1, node 19), m
         59    6.295E+00                                 F               0         IfW Y-component position of node 20 (blade 1, node 19), m
         60    6.570E+01                                 F               0         IfW Z-component position of node 20 (blade 1, node 19), m
         61   -9.259E+00                                 F               0         IfW X-component position of node 21 (blade 1, node 20), m
         62    6.906E+00                                 F               0         IfW Y-component position of node 21 (blade 1, node 20), m
         63    6.196E+01                                 F               0         IfW Z-component position of node 21 (blade 1, node 20), m
         64   -1.001E+01                                 F               0         IfW X-component position of node 22 (blade 1, node 21), m
         65    7.518E+00                                 F               0         IfW Y-component position of node 22 (blade 1, node 21), m
         66    5.821E+01                                 F               0         IfW Z-component position of node 22 (blade 1, node 21), m
         67   -1.075E+01                                 F               0         IfW X-component position of node 23 (blade 1, node 22), m
         68    8.129E+00                                 F               0         IfW Y-component position of node 23 (blade 1, node 22), m
         69    5.447E+01                                 F               0         IfW Z-component position of node 23 (blade 1, node 22), m
         70   -1.150E+01                                 F               0         IfW X-component position of node 24 (blade 1, node 23), m
         71    8.741E+00                                 F               0         IfW Y-component position of node 24 (blade 1, node 23), m
         72    5.072E+01                                 F               0         IfW Z-component position of node 24 (blade 1, node 23), m
         73   -1.225E+01                                 F               0         IfW X-component position of node 25 (blade 1, node 24), m
         74    9.352E+00                                 F               0         IfW Y-component position of node 25 (blade 1, node 24), m
         75    4.698E+01                                 F               0         IfW Z-component position of node 25 (blade 1, node 24), m
         76   -1.299E+01                                 F               0         IfW X-component position of node 26 (blade 1, node 25), m
         77    9.964E+00                                 F               0         IfW Y-component position of node 26 (blade 1, node 25), m
         78    4.323E+01                                 F               0         IfW Z-component position of node 26 (blade 1, node 25), m
         79   -1.374E+01                                 F               0         IfW X-component position of node 27 (blade 1, node 26), m
         80    1.058E+01                                 F               0         IfW Y-component position of node 27 (blade 1, node 26), m
         81    3.949E+01                                 F               0         IfW Z-component position of node 27 (blade 1, node 26), m
         82   -1.449E+01                                 F               0         IfW X-component position of node 28 (blade 1, node 27), m
         83    1.119E+01                                 F               0         IfW Y-component position of node 28 (blade 1, node 27), m
         84    3.574E+01                                 F               0         IfW Z-component position of node 28 (blade 1, node 27), m
         85   -1.512E+01                                 F               0         IfW X-component position of node 29 (blade 1, node 28), m
         86    1.171E+01                                 F               0         IfW Y-component position of node 29 (blade 1, node 28), m
         87    3.257E+01                                 F               0         IfW Z-component position of node 29 (blade 1, node 28), m
         88    8.903E+00                                 F               0         IfW X-component position of node 30 (blade 2, node 1), m
         89   -3.147E+00                                 F               0         IfW Y-component position of node 30 (blade 2, node 1), m
         90    1.533E+02                                 F               0         IfW Z-component position of node 30 (blade 2, node 1), m
         91    9.056E+00                                 F               0         IfW X-component position of node 31 (blade 2, node 2), m
         92   -2.111E+00                                 F               0         IfW Y-component position of node 31 (blade 2, node 2), m
         93    1.541E+02                                 F               0         IfW Z-component position of node 31 (blade 2, node 2), m
         94    1.114E+01                                 F               0         IfW X-component position of node 32 (blade 2, node 3), m
         95    1.198E+01                                 F               0         IfW Y-component position of node 32 (blade 2, node 3), m
         96    1.654E+02                                 F               0         IfW Z-component position of node 32 (blade 2, node 3), m
         97    1.158E+01                                 F               0         IfW X-component position of node 33 (blade 2, node 4), m
         98    1.498E+01                                 F               0         IfW Y-component position of node 33 (blade 2, node 4), m
         99    1.678E+02                                 F               0         IfW Z-component position of node 33 (blade 2, node 4), m
        100    1.203E+01                                 F               0         IfW X-component position of node 34 (blade 2, node 5), m
        101    1.798E+01                                 F               0         IfW Y-component position of node 34 (blade 2, node 5), m
        102    1.702E+02                                 F               0         IfW Z-component position of node 34 (blade 2, node 5), m
        103    1.247E+01                                 F               0         IfW X-component position of node 35 (blade 2, node 6), m
        104    2.098E+01                                 F               0         IfW Y-component position of node 35 (blade 2, node 6), m
        105    1.726E+02                                 F               0         IfW Z-component position of node 35 (blade 2, node 6), m
        106    1.291E+01                                 F               0         IfW X-component position of node 36 (blade 2, node 7), m
        107    2.398E+01                                 F               0         IfW Y-component position of node 36 (blade 2, node 7), m
        108    1.750E+02                                 F               0         IfW Z-component position of node 36 (blade 2, node 7), m
        109    1.336E+01                                 F               0         IfW X-component position of node 37 (blade 2, node 8), m
        110    2.698E+01                                 F               0         IfW Y-component position of node 37 (blade 2, node 8), m
        111    1.774E+02                                 F               0         IfW Z-component position of node 37 (blade 2, node 8), m
        112    1.380E+01                                 F               0         IfW X-component position of node 38 (blade 2, node 9), m
        113    2.999E+01                                 F               0         IfW Y-component position of node 38 (blade 2, node 9), m
        114    1.798E+02                                 F               0         IfW Z-component position of node 38 (blade 2, node 9), m
        115    1.424E+01                                 F               0         IfW X-component position of node 39 (blade 2, node 10), m
        116    3.299E+01                                 F               0         IfW Y-component position of node 39 (blade 2, node 10), m
        117    1.822E+02                                 F               0         IfW Z-component position of node 39 (blade 2, node 10), m
        118    1.469E+01                                 F               0         IfW X-component position of node 40 (blade 2, node 11), m
        119    3.599E+01                                 F               0         IfW Y-component position of node 40 (blade 2, node 11), m
        120    1.846E+02                                 F               0         IfW Z-component position of node 40 (blade 2, node 11), m
        121    1.513E+01                                 F               0         IfW X-component position of node 41 (blade 2, node 12), m
        122    3.899E+01                                 F               0         IfW Y-component position of node 41 (blade 2, node 12), m
        123    1.870E+02                                 F               0         IfW Z-component position of node 41 (blade 2, node 12), m
        124    1.557E+01                                 F               0         IfW X-component position of node 42 (blade 2, node 13), m
        125    4.199E+01                                 F               0         IfW Y-component position of node 42 (blade 2, node 13), m
        126    1.894E+02                                 F               0         IfW Z-component position of node 42 (blade 2, node 13), m
        127    1.602E+01                                 F               0         IfW X-component position of node 43 (blade 2, node 14), m
        128    4.499E+01                                 F               0         IfW Y-component position of node 43 (blade 2, node 14), m
        129    1.918E+02                                 F               0         IfW Z-component position of node 43 (blade 2, node 14), m
        130    1.646E+01                                 F               0         IfW X-component position of node 44 (blade 2, node 15), m
        131    4.799E+01                                 F               0         IfW Y-component position of node 44 (blade 2, node 15), m
        132    1.942E+02                                 F               0         IfW Z-component position of node 44 (blade 2, node 15), m
        133    1.691E+01                                 F               0         IfW X-component position of node 45 (blade 2, node 16), m
        134    5.100E+01                                 F               0         IfW Y-component position of node 45 (blade 2, node 16), m
        135    1.966E+02                                 F               0         IfW Z-component position of node 45 (blade 2, node 16), m
        136    1.735E+01                                 F               0         IfW X-component position of node 46 (blade 2, node 17), m
        137    5.400E+01                                 F               0         IfW Y-component position of node 46 (blade 2, node 17), m
        138    1.990E+02                                 F               0         IfW Z-component position of node 46 (blade 2, node 17), m
        139    1.779E+01                                 F               0         IfW X-component position of node 47 (blade 2, node 18), m
        140    5.700E+01                                 F               0         IfW Y-component position of node 47 (blade 2, node 18), m
        141    2.014E+02                                 F               0         IfW Z-component position of node 47 (blade 2, node 18), m
        142    1.824E+01                                 F               0         IfW X-component position of node 48 (blade 2, node 19), m
        143    6.000E+01                                 F               0         IfW Y-component position of node 48 (blade 2, node 19), m
        144    2.038E+02                                 F               0         IfW Z-component position of node 48 (blade 2, node 19), m