
Linearized model: Predictions were generated on 12-Jan-2024 at 08:43:17 using OpenFAST, compiled as a 64-bit application using single precision at commit v3.5.1
 linked with  NWTC Subroutine Library; ElastoDyn; InflowWind; AeroDyn; ServoDyn; HydroDyn; MAP++ (<1.20.10>, <Oct-20-2023>)

Description from the FAST input file: CCT-9 Campign 4 model. Input files to be run with OpenFAST 3.5.0. GitHub branch from Lu Wang (https://github.com/luwang00/openfast/tree/dev) compiled on March 7, 2023.

Simulation information:
   Simulation time:                   503.2250 s
   Rotor Speed:                         0.7075 rad/s
   Azimuth:                             5.6987 rad
   Wind Speed:                          8.0000 m/s
   Number of continuous states:        22
   Number of discrete states:           0
   Number of constraint states:         0
   Number of inputs:                 3988
   Number of outputs:                  58
   Jacobians included in this file?    No

Order of continuous states:
   Row/Column Operating Point                     Rotating Frame? Derivative Order Description
   ---------- ---------------                     --------------- ---------------- -----------
          1    5.769E+00                                 F               2         ED Platform horizontal surge translation DOF (internal DOF index = DOF_Sg), m
          2   -4.730E-01                                 F               2         ED Platform horizontal sway translation DOF (internal DOF index = DOF_Sw), m
          3   -1.151E-01                                 F               2         ED Platform vertical heave translation DOF (internal DOF index = DOF_Hv), m
          4    4.678E-02                                 F               2         ED Platform roll tilt rotation DOF (internal DOF index = DOF_R), rad
          5    8.561E-02                                 F               2         ED Platform pitch tilt rotation DOF (internal DOF index = DOF_P), rad
          6    2.693E-03                                 F               2         ED Platform yaw rotation DOF (internal DOF index = DOF_Y), rad
          7    4.677E-01                                 F               2         ED 1st tower fore-aft bending mode DOF (internal DOF index = DOF_TFA1), m
          8    1.840E-01                                 F               2         ED 1st tower side-to-side bending mode DOF (internal DOF index = DOF_TSS1), m
          9    1.462E-03                                 F               2         ED 2nd tower fore-aft bending mode DOF (internal DOF index = DOF_TFA2), m
         10    8.201E-05                                 F               2         ED 2nd tower side-to-side bending mode DOF (internal DOF index = DOF_TSS2), m
         11    4.128E+00                                 F               2         ED Variable speed generator DOF (internal DOF index = DOF_GeAz), rad
         12   -4.892E-03                                 F               2         ED First time derivative of Platform horizontal surge translation DOF (internal DOF index = DOF_Sg), m/s
         13    1.813E-03                                 F               2         ED First time derivative of Platform horizontal sway translation DOF (internal DOF index = DOF_Sw), m/s
         14    1.300E-03                                 F               2         ED First time derivative of Platform vertical heave translation DOF (internal DOF index = DOF_Hv), m/s
         15   -2.023E-04                                 F               2         ED First time derivative of Platform roll tilt rotation DOF (internal DOF index = DOF_R), rad/s
         16   -8.349E-06                                 F               2         ED First time derivative of Platform pitch tilt rotation DOF (internal DOF index = DOF_P), rad/s
         17    5.048E-05                                 F               2         ED First time derivative of Platform yaw rotation DOF (internal DOF index = DOF_Y), rad/s
         18    5.336E-04                                 F               2         ED First time derivative of 1st tower fore-aft bending mode DOF (internal DOF index = DOF_TFA1), m/s
         19   -1.322E-03                                 F               2         ED First time derivative of 1st tower side-to-side bending mode DOF (internal DOF index = DOF_TSS1), m/s
         20   -3.218E-06                                 F               2         ED First time derivative of 2nd tower fore-aft bending mode DOF (internal DOF index = DOF_TFA2), m/s
         21   -5.325E-07                                 F               2         ED First time derivative of 2nd tower side-to-side bending mode DOF (internal DOF index = DOF_TSS2), m/s
         22    7.075E-01                                 F               2         ED First time derivative of Variable speed generator DOF (internal DOF index = DOF_GeAz), rad/s

Order of continuous state derivatives:
   Row/Column Operating Point                     Rotating Frame? Derivative Order Description
   ---------- ---------------                     --------------- ---------------- -----------
          1   -4.892E-03                                 F               2         First time derivative of ED Platform horizontal surge translation DOF (internal DOF index = DOF_Sg), m/s
          2    1.813E-03                                 F               2         First time derivative of ED Platform horizontal sway translation DOF (internal DOF index = DOF_Sw), m/s
          3    1.300E-03                                 F               2         First time derivative of ED Platform vertical heave translation DOF (internal DOF index = DOF_Hv), m/s
          4   -2.023E-04                                 F               2         First time derivative of ED Platform roll tilt rotation DOF (internal DOF index = DOF_R), rad/s
          5   -8.349E-06                                 F               2         First time derivative of ED Platform pitch tilt rotation DOF (internal DOF index = DOF_P), rad/s
          6    5.048E-05                                 F               2         First time derivative of ED Platform yaw rotation DOF (internal DOF index = DOF_Y), rad/s
          7    5.336E-04                                 F               2         First time derivative of ED 1st tower fore-aft bending mode DOF (internal DOF index = DOF_TFA1), m/s
          8   -1.322E-03                                 F               2         First time derivative of ED 1st tower side-to-side bending mode DOF (internal DOF index = DOF_TSS1), m/s
          9   -3.218E-06                                 F               2         First time derivative of ED 2nd tower fore-aft bending mode DOF (internal DOF index = DOF_TFA2), m/s
         10   -5.325E-07                                 F               2         First time derivative of ED 2nd tower side-to-side bending mode DOF (internal DOF index = DOF_TSS2), m/s
         11    7.075E-01                                 F               2         First time derivative of ED Variable speed generator DOF (internal DOF index = DOF_GeAz), rad/s
         12   -1.502E-04                                 F               2         First time derivative of ED First time derivative of Platform horizontal surge translation DOF (internal DOF index = DOF_Sg), m/s/s
         13    1.739E-05                                 F               2         First time derivative of ED First time derivative of Platform horizontal sway translation DOF (internal DOF index = DOF_Sw), m/s/s
         14    8.211E-04                                 F               2         First time derivative of ED First time derivative of Platform vertical heave translation DOF (internal DOF index = DOF_Hv), m/s/s
         15   -5.869E-05                                 F               2         First time derivative of ED First time derivative of Platform roll tilt rotation DOF (internal DOF index = DOF_R), rad/s/s
         16    6.289E-06                                 F               2         First time derivative of ED First time derivative of Platform pitch tilt rotation DOF (internal DOF index = DOF_P), rad/s/s
         17    9.229E-07                                 F               2         First time derivative of ED First time derivative of Platform yaw rotation DOF (internal DOF index = DOF_Y), rad/s/s
         18   -8.396E-04                                 F               2         First time derivative of ED First time derivative of 1st tower fore-aft bending mode DOF (internal DOF index = DOF_TFA1), m/s/s
         19    1.207E-04                                 F               2         First time derivative of ED First time derivative of 1st tower side-to-side bending mode DOF (internal DOF index = DOF_TSS1), m/s/s
         20    3.994E-06                                 F               2         First time derivative of ED First time derivative of 2nd tower fore-aft bending mode DOF (internal DOF index = DOF_TFA2), m/s/s
         21   -3.947E-06                                 F               2         First time derivative of ED First time derivative of 2nd tower side-to-side bending mode DOF (internal DOF index = DOF_TSS2), m/s/s
         22   -9.209E-05                                 F               2         First time derivative of ED First time derivative of Variable speed generator DOF (internal DOF index = DOF_GeAz), rad/s/s

Order of inputs:
     Column   Operating Point                     Rotating Frame? Derivative Order Description
   ---------- ---------------                     --------------- ---------------- -----------
          1   -1.080E+01                                 F               0         IfW X-component position of node 1 (hub), m
          2    0.000E+00                                 F               0         IfW Y-component position of node 1 (hub), m
          3    1.497E+02                                 F               0         IfW Z-component position of node 1 (hub), m
          4    9.185E+00                                 F               0         IfW X-component position of node 2 (blade 1, node 1), m
          5   -4.847E+00                                 F               0         IfW Y-component position of node 2 (blade 1, node 1), m
          6    1.545E+02                                 F               0         IfW Z-component position of node 2 (blade 1, node 1), m
          7    9.401E+00                                 F               0         IfW X-component position of node 3 (blade 1, node 2), m
          8   -4.165E+00                                 F               0         IfW Y-component position of node 3 (blade 1, node 2), m
          9    1.556E+02                                 F               0         IfW Z-component position of node 3 (blade 1, node 2), m
         10    1.234E+01                                 F               0         IfW X-component position of node 4 (blade 1, node 3), m
         11    5.114E+00                                 F               0         IfW Y-component position of node 4 (blade 1, node 3), m
         12    1.710E+02                                 F               0         IfW Z-component position of node 4 (blade 1, node 3), m
         13    1.296E+01                                 F               0         IfW X-component position of node 5 (blade 1, node 4), m
         14    7.091E+00                                 F               0         IfW Y-component position of node 5 (blade 1, node 4), m
         15    1.742E+02                                 F               0         IfW Z-component position of node 5 (blade 1, node 4), m
         16    1.359E+01                                 F               0         IfW X-component position of node 6 (blade 1, node 5), m
         17    9.068E+00                                 F               0         IfW Y-component position of node 6 (blade 1, node 5), m
         18    1.775E+02                                 F               0         IfW Z-component position of node 6 (blade 1, node 5), m
         19    1.421E+01                                 F               0         IfW X-component position of node 7 (blade 1, node 6), m
         20    1.104E+01                                 F               0         IfW Y-component position of node 7 (blade 1, node 6), m
         21    1.808E+02                                 F               0         IfW Z-component position of node 7 (blade 1, node 6), m
         22    1.484E+01                                 F               0         IfW X-component position of node 8 (blade 1, node 7), m
         23    1.302E+01                                 F               0         IfW Y-component position of node 8 (blade 1, node 7), m
         24    1.840E+02                                 F               0         IfW Z-component position of node 8 (blade 1, node 7), m
         25    1.546E+01                                 F               0         IfW X-component position of node 9 (blade 1, node 8), m
         26    1.500E+01                                 F               0         IfW Y-component position of node 9 (blade 1, node 8), m
         27    1.873E+02                                 F               0         IfW Z-component position of node 9 (blade 1, node 8), m
         28    1.609E+01                                 F               0         IfW X-component position of node 10 (blade 1, node 9), m
         29    1.698E+01                                 F               0         IfW Y-component position of node 10 (blade 1, node 9), m
         30    1.906E+02                                 F               0         IfW Z-component position of node 10 (blade 1, node 9), m
         31    1.671E+01                                 F               0         IfW X-component position of node 11 (blade 1, node 10), m
         32    1.895E+01                                 F               0         IfW Y-component position of node 11 (blade 1, node 10), m
         33    1.938E+02                                 F               0         IfW Z-component position of node 11 (blade 1, node 10), m
         34    1.734E+01                                 F               0         IfW X-component position of node 12 (blade 1, node 11), m
         35    2.093E+01                                 F               0         IfW Y-component position of node 12 (blade 1, node 11), m
         36    1.971E+02                                 F               0         IfW Z-component position of node 12 (blade 1, node 11), m
         37    1.796E+01                                 F               0         IfW X-component position of node 13 (blade 1, node 12), m
         38    2.291E+01                                 F               0         IfW Y-component position of node 13 (blade 1, node 12), m
         39    2.004E+02                                 F               0         IfW Z-component position of node 13 (blade 1, node 12), m
         40    1.859E+01                                 F               0         IfW X-component position of node 14 (blade 1, node 13), m
         41    2.488E+01                                 F               0         IfW Y-component position of node 14 (blade 1, node 13), m
         42    2.036E+02                                 F               0         IfW Z-component position of node 14 (blade 1, node 13), m
         43    1.921E+01                                 F               0         IfW X-component position of node 15 (blade 1, node 14), m
         44    2.686E+01                                 F               0         IfW Y-component position of node 15 (blade 1, node 14), m
         45    2.069E+02                                 F               0         IfW Z-component position of node 15 (blade 1, node 14), m
         46    1.984E+01                                 F               0         IfW X-component position of node 16 (blade 1, node 15), m
         47    2.884E+01                                 F               0         IfW Y-component position of node 16 (blade 1, node 15), m
         48    2.101E+02                                 F               0         IfW Z-component position of node 16 (blade 1, node 15), m
         49    2.046E+01                                 F               0         IfW X-component position of node 17 (blade 1, node 16), m
         50    3.081E+01                                 F               0         IfW Y-component position of node 17 (blade 1, node 16), m
         51    2.134E+02                                 F               0         IfW Z-component position of node 17 (blade 1, node 16), m
         52    2.109E+01                                 F               0         IfW X-component position of node 18 (blade 1, node 17), m
         53    3.279E+01                                 F               0         IfW Y-component position of node 18 (blade 1, node 17), m
         54    2.167E+02                                 F               0         IfW Z-component position of node 18 (blade 1, node 17), m
         55    2.171E+01                                 F               0         IfW X-component position of node 19 (blade 1, node 18), m
         56    3.477E+01                                 F               0         IfW Y-component position of node 19 (blade 1, node 18), m
         57    2.199E+02                                 F               0         IfW Z-component position of node 19 (blade 1, node 18), m
         58    2.234E+01                                 F               0         IfW X-component position of node 20 (blade 1, node 19), m
         59    3.675E+01                                 F               0         IfW Y-component position of node 20 (blade 1, node 19), m
         60    2.232E+02                                 F               0         IfW Z-component position of node 20 (blade 1, node 19), m
         61    2.297E+01                                 F               0         IfW X-component position of node 21 (blade 1, node 20), m
         62    3.872E+01                                 F               0         IfW Y-component position of node 21 (blade 1, node 20), m
         63    2.265E+02                                 F               0         IfW Z-component position of node 21 (blade 1, node 20), m
         64    2.359E+01                                 F               0         IfW X-component position of node 22 (blade 1, node 21), m
         65    4.070E+01                                 F               0         IfW Y-component position of node 22 (blade 1, node 21), m
         66    2.297E+02                                 F               0         IfW Z-component position of node 22 (blade 1, node 21), m
         67    2.422E+01                                 F               0         IfW X-component position of node 23 (blade 1, node 22), m
         68    4.268E+01                                 F               0         IfW Y-component position of node 23 (blade 1, node 22), m
         69    2.330E+02                                 F               0         IfW Z-component position of node 23 (blade 1, node 22), m
         70    2.484E+01                                 F               0         IfW X-component position of node 24 (blade 1, node 23), m
         71    4.465E+01                                 F               0         IfW Y-component position of node 24 (blade 1, node 23), m
         72    2.363E+02                                 F               0         IfW Z-component position of node 24 (blade 1, node 23), m
         73    2.547E+01                                 F               0         IfW X-component position of node 25 (blade 1, node 24), m
         74    4.663E+01                                 F               0         IfW Y-component position of node 25 (blade 1, node 24), m
         75    2.395E+02                                 F               0         IfW Z-component position of node 25 (blade 1, node 24), m
         76    2.609E+01                                 F               0         IfW X-component position of node 26 (blade 1, node 25), m
         77    4.861E+01                                 F               0         IfW Y-component position of node 26 (blade 1, node 25), m
         78    2.428E+02                                 F               0         IfW Z-component position of node 26 (blade 1, node 25), m
         79    2.672E+01                                 F               0         IfW X-component position of node 27 (blade 1, node 26), m
         80    5.058E+01                                 F               0         IfW Y-component position of node 27 (blade 1, node 26), m
         81    2.461E+02                                 F               0         IfW Z-component position of node 27 (blade 1, node 26), m
         82    2.734E+01                                 F               0         IfW X-component position of node 28 (blade 1, node 27), m
         83    5.256E+01                                 F               0         IfW Y-component position of node 28 (blade 1, node 27), m
         84    2.493E+02                                 F               0         IfW Z-component position of node 28 (blade 1, node 27), m
         85    2.787E+01                                 F               0         IfW X-component position of node 29 (blade 1, node 28), m
         86    5.424E+01                                 F               0         IfW Y-component position of node 29 (blade 1, node 28), m
         87    2.521E+02                                 F               0         IfW Z-component position of node 29 (blade 1, node 28), m
         88    8.358E+00                                 F               0         IfW X-component position of node 30 (blade 2, node 1), m
         89   -1.322E+01                                 F               0         IfW Y-component position of node 30 (blade 2, node 1), m
         90    1.499E+02                                 F               0         IfW Z-component position of node 30 (blade 2, node 1), m
         91    8.374E+00                                 F               0         IfW X-component position of node 31 (blade 2, node 2), m
         92   -1.455E+01                                 F               0         IfW Y-component position of node 31 (blade 2, node 2), m
         93    1.499E+02                                 F               0         IfW Z-component position of node 31 (blade 2, node 2), m
         94    8.597E+00                                 F               0         IfW X-component position of node 32 (blade 2, node 3), m
         95   -3.270E+01                                 F               0         IfW Y-component position of node 32 (blade 2, node 3), m
         96    1.501E+02                                 F               0         IfW Z-component position of node 32 (blade 2, node 3), m
         97    8.645E+00                                 F               0         IfW X-component position of node 33 (blade 2, node 4), m
         98   -3.657E+01                                 F               0         IfW Y-component position of node 33 (blade 2, node 4), m
         99    1.502E+02                                 F               0         IfW Z-component position of node 33 (blade 2, node 4), m
        100    8.693E+00                                 F               0         IfW X-component position of node 34 (blade 2, node 5), m
        101   -4.044E+01                                 F               0         IfW Y-component position of node 34 (blade 2, node 5), m
        102    1.502E+02                                 F               0         IfW Z-component position of node 34 (blade 2, node 5), m
        103    8.740E+00                                 F               0         IfW X-component position of node 35 (blade 2, node 6), m
        104   -4.430E+01                                 F               0         IfW Y-component position of node 35 (blade 2, node 6), m
        105    1.502E+02                                 F               0         IfW Z-component position of node 35 (blade 2, node 6), m
        106    8.788E+00                                 F               0         IfW X-component position of node 36 (blade 2, node 7), m
        107   -4.817E+01                                 F               0         IfW Y-component position of node 36 (blade 2, node 7), m
        108    1.503E+02                                 F               0         IfW Z-component position of node 36 (blade 2, node 7), m
        109    8.835E+00                                 F               0         IfW X-component position of node 37 (blade 2, node 8), m
        110   -5.204E+01                                 F               0         IfW Y-component position of node 37 (blade 2, node 8), m
        111    1.503E+02                                 F               0         IfW Z-component position of node 37 (blade 2, node 8), m
        112    8.883E+00                                 F               0         IfW X-component position of node 38 (blade 2, node 9), m
        113   -5.591E+01                                 F               0         IfW Y-component position of node 38 (blade 2, node 9), m
        114    1.504E+02                                 F               0         IfW Z-component position of node 38 (blade 2, node 9), m
        115    8.930E+00                                 F               0         IfW X-component position of node 39 (blade 2, node 10), m
        116   -5.977E+01                                 F               0         IfW Y-component position of node 39 (blade 2, node 10), m
        117    1.504E+02                                 F               0         IfW Z-component position of node 39 (blade 2, node 10), m
        118    8.978E+00                                 F               0         IfW X-component position of node 40 (blade 2, node 11), m
        119   -6.364E+01                                 F               0         IfW Y-component position of node 40 (blade 2, node 11), m
        120    1.504E+02                                 F               0         IfW Z-component position of node 40 (blade 2, node 11), m
        121    9.026E+00                                 F               0         IfW X-component position of node 41 (blade 2, node 12), m
        122   -6.751E+01                                 F               0         IfW Y-component position of node 41 (blade 2, node 12), m
        123    1.505E+02                                 F               0         IfW Z-component position of node 41 (blade 2, node 12), m
        124    9.073E+00                                 F               0         IfW X-component position of node 42 (blade 2, node 13), m
        125   -7.138E+01                                 F               0         IfW Y-component position of node 42 (blade 2, node 13), m
        126    1.505E+02                                 F               0         IfW Z-component position of node 42 (blade 2, node 13), m
        127    9.121E+00                                 F               0         IfW X-component position of node 43 (blade 2, node 14), m
        128   -7.524E+01                                 F               0         IfW Y-component position of node 43 (blade 2, node 14), m
        129    1.506E+02                                 F               0         IfW Z-component position of node 43 (blade 2, node 14), m
        130    9.168E+00                                 F               0         IfW X-component position of node 44 (blade 2, node 15), m
        131   -7.911E+01                                 F               0         IfW Y-component position of node 44 (blade 2, node 15), m
        132    1.506E+02                                 F               0         IfW Z-component position of node 44 (blade 2, node 15), m
        133    9.216E+00                                 F               0         IfW X-component position of node 45 (blade 2, node 16), m
        134   -8.298E+01                                 F               0         IfW Y-component position of node 45 (blade 2, node 16), m
        135    1.507E+02                                 F               0         IfW Z-component position of node 45 (blade 2, node 16), m
        136    9.264E+00                                 F               0         IfW X-component position of node 46 (blade 2, node 17), m
        137   -8.684E+01                                 F               0         IfW Y-component position of node 46 (blade 2, node 17), m
        138    1.507E+02                                 F               0         IfW Z-component position of node 46 (blade 2, node 17), m
        139    9.311E+00                                 F               0         IfW X-component position of node 47 (blade 2, node 18), m
        140   -9.071E+01                                 F               0         IfW Y-component position of node 47 (blade 2, node 18), m
        141    1.507E+02                                 F               0         IfW Z-component position of node 47 (blade 2, node 18), m
        142    9.359E+00                                 F               0         IfW X-component position of node 48 (blade 2, node 19), m
        143   -9.458E+01                                 F               0         IfW Y-component position of node 48 (blade 2, node 19), m
        144    1.508E+02                                 F               0         IfW Z-component position of node 48 (blade 2, node 19), m