
Linearized model: Predictions were generated on 12-Jan-2024 at 08:43:17 using OpenFAST, compiled as a 64-bit application using single precision at commit v3.5.1
 linked with  NWTC Subroutine Library; ElastoDyn; InflowWind; AeroDyn; ServoDyn; HydroDyn; MAP++ (<1.20.10>, <Oct-20-2023>)

Description from the FAST input file: CCT-9 Campign 4 model. Input files to be run with OpenFAST 3.5.0. GitHub branch from Lu Wang (https://github.com/luwang00/openfast/tree/dev) compiled on March 7, 2023.

Simulation information:
   Simulation time:                   503.9500 s
   Rotor Speed:                         0.7075 rad/s
   Azimuth:                             6.2117 rad
   Wind Speed:                          8.0000 m/s
   Number of continuous states:         0
   Number of discrete states:           0
   Number of constraint states:         0
   Number of inputs:                 1746
   Number of outputs:                   4
   Jacobians included in this file?    No

Order of inputs:
     Column   Operating Point                     Rotating Frame? Derivative Order Description
   ---------- ---------------                     --------------- ---------------- -----------
          1    7.329E+00                                 F               0         Tower X translation displacement, node 1, m
          2   -1.320E+00                                 F               0         Tower Y translation displacement, node 1, m
          3   -2.004E-01                                 F               0         Tower Z translation displacement, node 1, m
          4    8.389E+00                                 F               0         Tower X translation displacement, node 2, m
          5   -1.894E+00                                 F               0         Tower Y translation displacement, node 2, m
          6   -2.594E-01                                 F               0         Tower Z translation displacement, node 2, m
          7    9.465E+00                                 F               0         Tower X translation displacement, node 3, m
          8   -2.474E+00                                 F               0         Tower Y translation displacement, node 3, m
          9   -3.199E-01                                 F               0         Tower Z translation displacement, node 3, m
         10    1.055E+01                                 F               0         Tower X translation displacement, node 4, m
         11   -3.058E+00                                 F               0         Tower Y translation displacement, node 4, m
         12   -3.818E-01                                 F               0         Tower Z translation displacement, node 4, m
         13    1.165E+01                                 F               0         Tower X translation displacement, node 5, m
         14   -3.645E+00                                 F               0         Tower Y translation displacement, node 5, m
         15   -4.446E-01                                 F               0         Tower Z translation displacement, node 5, m
         16    1.275E+01                                 F               0         Tower X translation displacement, node 6, m
         17   -4.236E+00                                 F               0         Tower Y translation displacement, node 6, m
         18   -5.083E-01                                 F               0         Tower Z translation displacement, node 6, m
         19    1.386E+01                                 F               0         Tower X translation displacement, node 7, m
         20   -4.829E+00                                 F               0         Tower Y translation displacement, node 7, m
         21   -5.725E-01                                 F               0         Tower Z translation displacement, node 7, m
         22    1.498E+01                                 F               0         Tower X translation displacement, node 8, m
         23   -5.425E+00                                 F               0         Tower Y translation displacement, node 8, m
         24   -6.372E-01                                 F               0         Tower Z translation displacement, node 8, m
         25    1.609E+01                                 F               0         Tower X translation displacement, node 9, m
         26   -6.022E+00                                 F               0         Tower Y translation displacement, node 9, m
         27   -7.023E-01                                 F               0         Tower Z translation displacement, node 9, m
         28    1.721E+01                                 F               0         Tower X translation displacement, node 10, m
         29   -6.620E+00                                 F               0         Tower Y translation displacement, node 10, m
         30   -7.675E-01                                 F               0         Tower Z translation displacement, node 10, m
         31    1.833E+01                                 F               0         Tower X translation displacement, node 11, m
         32   -7.219E+00                                 F               0         Tower Y translation displacement, node 11, m
         33   -8.329E-01                                 F               0         Tower Z translation displacement, node 11, m
         34    9.964E-01,  4.698E-03, -8.514E-02         F               0         Tower X orientation angle, node 1, rad
         35   -7.359E-04,  9.989E-01,  4.651E-02         F               0         Tower Y orientation angle, node 1, rad
         36    8.526E-02, -4.628E-02,  9.953E-01         F               0         Tower Z orientation angle, node 1, rad
         37    9.963E-01,  4.755E-03, -8.636E-02         F               0         Tower X orientation angle, node 2, rad
         38   -6.993E-04,  9.989E-01,  4.694E-02         F               0         Tower Y orientation angle, node 2, rad
         39    8.648E-02, -4.670E-02,  9.952E-01         F               0         Tower Z orientation angle, node 2, rad
         40    9.962E-01,  4.805E-03, -8.741E-02         F               0         Tower X orientation angle, node 3, rad
         41   -6.661E-04,  9.989E-01,  4.732E-02         F               0         Tower Y orientation angle, node 3, rad
         42    8.754E-02, -4.708E-02,  9.950E-01         F               0         Tower Z orientation angle, node 3, rad
         43    9.961E-01,  4.846E-03, -8.827E-02         F               0         Tower X orientation angle, node 4, rad
         44   -6.367E-04,  9.989E-01,  4.765E-02         F               0         Tower Y orientation angle, node 4, rad
         45    8.840E-02, -4.740E-02,  9.950E-01         F               0         Tower Z orientation angle, node 4, rad
         46    9.960E-01,  4.879E-03, -8.896E-02         F               0         Tower X orientation angle, node 5, rad
         47   -6.114E-04,  9.989E-01,  4.793E-02         F               0         Tower Y orientation angle, node 5, rad
         48    8.910E-02, -4.769E-02,  9.949E-01         F               0         Tower Z orientation angle, node 5, rad
         49    9.960E-01,  4.904E-03, -8.949E-02         F               0         Tower X orientation angle, node 6, rad
         50   -5.900E-04,  9.988E-01,  4.817E-02         F               0         Tower Y orientation angle, node 6, rad
         51    8.963E-02, -4.792E-02,  9.948E-01         F               0         Tower Z orientation angle, node 6, rad
         52    9.959E-01,  4.923E-03, -8.987E-02         F               0         Tower X orientation angle, node 7, rad
         53   -5.729E-04,  9.988E-01,  4.836E-02         F               0         Tower Y orientation angle, node 7, rad
         54    9.001E-02, -4.811E-02,  9.948E-01         F               0         Tower Z orientation angle, node 7, rad
         55    9.959E-01,  4.935E-03, -9.013E-02         F               0         Tower X orientation angle, node 8, rad
         56   -5.596E-04,  9.988E-01,  4.851E-02         F               0         Tower Y orientation angle, node 8, rad
         57    9.027E-02, -4.826E-02,  9.947E-01         F               0         Tower Z orientation angle, node 8, rad
         58    9.959E-01,  4.944E-03, -9.030E-02         F               0         Tower X orientation angle, node 9, rad
         59   -5.499E-04,  9.988E-01,  4.862E-02         F               0         Tower Y orientation angle, node 9, rad
         60    9.043E-02, -4.837E-02,  9.947E-01         F               0         Tower Z orientation angle, node 9, rad
         61    9.959E-01,  4.948E-03, -9.039E-02         F               0         Tower X orientation angle, node 10, rad
         62   -5.435E-04,  9.988E-01,  4.869E-02         F               0         Tower Y orientation angle, node 10, rad
         63    9.052E-02, -4.844E-02,  9.947E-01         F               0         Tower Z orientation angle, node 10, rad
         64    9.959E-01,  4.950E-03, -9.043E-02         F               0         Tower X orientation angle, node 11, rad
         65   -5.400E-04,  9.988E-01,  4.873E-02         F               0         Tower Y orientation angle, node 11, rad
         66    9.056E-02, -4.848E-02,  9.947E-01         F               0         Tower Z orientation angle, node 11, rad
         67   -4.968E-03                                 F               0         Tower X translation velocity, node 1, m/s
         68    6.297E-03                                 F               0         Tower Y translation velocity, node 1, m/s
         69    2.092E-03                                 F               0         Tower Z translation velocity, node 1, m/s
         70   -4.970E-03                                 F               0         Tower X translation velocity, node 2, m/s
         71    9.338E-03                                 F               0         Tower Y translation velocity, node 2, m/s
         72    2.234E-03                                 F               0         Tower Z translation velocity, node 2, m/s
         73   -4.979E-03                                 F               0         Tower X translation velocity, node 3, m/s
         74    1.242E-02                                 F               0         Tower Y translation velocity, node 3, m/s
         75    2.380E-03                                 F               0         Tower Z translation velocity, node 3, m/s
         76   -4.994E-03                                 F               0         Tower X translation velocity, node 4, m/s
         77    1.554E-02                                 F               0         Tower Y translation velocity, node 4, m/s
         78    2.529E-03                                 F               0         Tower Z translation velocity, node 4, m/s
         79   -5.014E-03                                 F               0         Tower X translation velocity, node 5, m/s
         80    1.868E-02                                 F               0         Tower Y translation velocity, node 5, m/s
         81    2.681E-03                                 F               0         Tower Z translation velocity, node 5, m/s
         82   -5.038E-03                                 F               0         Tower X translation velocity, node 6, m/s
         83    2.185E-02                                 F               0         Tower Y translation velocity, node 6, m/s
         84    2.836E-03                                 F               0         Tower Z translation velocity, node 6, m/s
         85   -5.066E-03                                 F               0         Tower X translation velocity, node 7, m/s
         86    2.503E-02                                 F               0         Tower Y translation velocity, node 7, m/s
         87    2.992E-03                                 F               0         Tower Z translation velocity, node 7, m/s
         88   -5.097E-03                                 F               0         Tower X translation velocity, node 8, m/s
         89    2.823E-02                                 F               0         Tower Y translation velocity, node 8, m/s
         90    3.150E-03                                 F               0         Tower Z translation velocity, node 8, m/s
         91   -5.131E-03                                 F               0         Tower X translation velocity, node 9, m/s
         92    3.144E-02                                 F               0         Tower Y translation velocity, node 9, m/s
         93    3.309E-03                                 F               0         Tower Z translation velocity, node 9, m/s
         94   -5.166E-03                                 F               0         Tower X translation velocity, node 10, m/s
         95    3.466E-02                                 F               0         Tower Y translation velocity, node 10, m/s
         96    3.468E-03                                 F               0         Tower Z translation velocity, node 10, m/s
         97   -5.202E-03                                 F               0         Tower X translation velocity, node 11, m/s
         98    3.788E-02                                 F               0         Tower Y translation velocity, node 11, m/s
         99    3.629E-03                                 F               0         Tower Z translation velocity, node 11, m/s
        100    1.909E+01                                 F               0         Hub X translation displacement, node 1, m
        101   -7.653E+00                                 F               0         Hub Y translation displacement, node 1, m
        102    1.023E-01                                 F               0         Hub Z translation displacement, node 1, m
        103    9.810E-01,  9.991E-03, -1.939E-01         F               0         Hub X orientation angle, node 1, rad
        104   -1.441E-02,  9.997E-01, -2.140E-02         F               0         Hub Y orientation angle, node 1, rad
        105    1.936E-01,  2.379E-02,  9.808E-01         F               0         Hub Z orientation angle, node 1, rad
        106    6.938E-01                                 F               0         Hub X rotation velocity, node 1, rad/s
        107    7.063E-03                                 F               0         Hub Y rotation velocity, node 1, rad/s
        108   -1.371E-01                                 F               0         Hub Z rotation velocity, node 1, rad/s
        109    9.810E-01, -1.967E-02, -1.932E-01         F               0         Blade root 1 X orientation angle, node 1, rad
        110    1.470E-02,  9.995E-01, -2.714E-02         F               0         Blade root 1 Y orientation angle, node 1, rad
        111    1.936E-01,  2.379E-02,  9.808E-01         F               0         Blade root 1 Z orientation angle, node 1, rad
        112    9.753E-01,  2.420E-02, -2.193E-01         F               0         Blade root 2 X orientation angle, node 1, rad
        113    2.039E-01, -4.787E-01,  8.540E-01         F               0         Blade root 2 Y orientation angle, node 1, rad
        114   -8.434E-02, -8.776E-01, -4.719E-01         F               0         Blade root 2 Z orientation angle, node 1, rad
        115    9.853E-01,  2.543E-02, -1.689E-01         F               0         Blade root 3 X orientation angle, node 1, rad
        116   -1.313E-01, -5.199E-01, -8.441E-01         F               0         Blade root 3 Y orientation angle, node 1, rad
        117   -1.093E-01,  8.538E-01, -5.089E-01         F               0         Blade root 3 Z orientation angle, node 1, rad
        118    1.958E+01                                 F               0         Blade 1 X translation displacement, node 1, m
        119   -7.521E+00                                 F               0         Blade 1 Y translation displacement, node 1, m
        120    2.621E-02                                 F               0         Blade 1 Z translation displacement, node 1, m
        121    1.970E+01                                 F               0         Blade 1 X translation displacement, node 2, m
        122   -7.489E+00                                 F               0         Blade 1 Y translation displacement, node 2, m
        123    7.877E-03                                 F               0         Blade 1 Z translation displacement, node 2, m
        124    2.132E+01                                 F               0         Blade 1 X translation displacement, node 3, m
        125   -7.058E+00                                 F               0         Blade 1 Y translation displacement, node 3, m
        126   -2.415E-01                                 F               0         Blade 1 Z translation displacement, node 3, m
        127    2.166E+01                                 F               0         Blade 1 X translation displacement, node 4, m
        128   -6.966E+00                                 F               0         Blade 1 Y translation displacement, node 4, m
        129   -2.946E-01                                 F               0         Blade 1 Z translation displacement, node 4, m
        130    2.201E+01                                 F               0         Blade 1 X translation displacement, node 5, m
        131   -6.874E+00                                 F               0         Blade 1 Y translation displacement, node 5, m
        132   -3.477E-01                                 F               0         Blade 1 Z translation displacement, node 5, m
        133    2.235E+01                                 F               0         Blade 1 X translation displacement, node 6, m
        134   -6.782E+00                                 F               0         Blade 1 Y translation displacement, node 6, m
        135   -4.009E-01                                 F               0         Blade 1 Z translation displacement, node 6, m
        136    2.269E+01                                 F               0         Blade 1 X translation displacement, node 7, m
        137   -6.690E+00                                 F               0         Blade 1 Y translation displacement, node 7, m
        138   -4.540E-01                                 F               0         Blade 1 Z translation displacement, node 7, m
        139    2.304E+01                                 F               0         Blade 1 X translation displacement, node 8, m
        140   -6.598E+00                                 F               0         Blade 1 Y translation displacement, node 8, m
        141   -5.071E-01                                 F               0         Blade 1 Z translation displacement, node 8, m
        142    2.338E+01                                 F               0         Blade 1 X translation displacement, node 9, m
        143   -6.506E+00                                 F               0         Blade 1 Y translation displacement, node 9, m
        144   -5.602E-01                                 F               0         Blade 1 Z translation displacement, node 9, m
        145    2.373E+01                                 F               0         Blade 1 X translation displacement, node 10, m
        146   -6.414E+00                                 F               0         Blade 1 Y translation displacement, node 10, m
        147   -6.134E-01                                 F               0         Blade 1 Z translation displacement, node 10, m
        148    2.407E+01                                 F               0         Blade 1 X translation displacement, node 11, m
        149   -6.322E+00                                 F               0         Blade 1 Y translation displacement, node 11, m
        150   -6.665E-01                                 F               0         Blade 1 Z translation displacement, node 11, m
        151    2.442E+01                                 F               0         Blade 1 X translation displacement, node 12, m
        152   -6.230E+00                                 F               0         Blade 1 Y translation displacement, node 12, m
        153   -7.196E-01                                 F               0         Blade 1 Z translation displacement, node 12, m
        154    2.476E+01                                 F               0         Blade 1 X translation displacement, node 13, m
        155   -6.138E+00                                 F               0         Blade 1 Y translation displacement, node 13, m
        156   -7.727E-01                                 F               0         Blade 1 Z translation displacement, node 13, m
        157    2.511E+01                                 F               0         Blade 1 X translation displacement, node 14, m
        158   -6.046E+00                                 F               0         Blade 1 Y translation displacement, node 14, m
        159   -8.259E-01                                 F               0         Blade 1 Z translation displacement, node 14, m
        160    2.545E+01                                 F               0         Blade 1 X translation displacement, node 15, m
        161   -5.953E+00                                 F               0         Blade 1 Y translation displacement, node 15, m
        162   -8.790E-01                                 F               0         Blade 1 Z translation displacement, node 15, m
        163    2.580E+01                                 F               0         Blade 1 X translation displacement, node 16, m
        164   -5.861E+00                                 F               0         Blade 1 Y translation displacement, node 16, m
        165   -9.321E-01                                 F               0         Blade 1 Z translation displacement, node 16, m
        166    2.614E+01                                 F               0         Blade 1 X translation displacement, node 17, m
        167   -5.769E+00                                 F               0         Blade 1 Y translation displacement, node 17, m
        168   -9.852E-01                                 F               0         Blade 1 Z translation displacement, node 17, m
        169    2.649E+01                                 F               0         Blade 1 X translation displacement, node 18, m
        170   -5.677E+00                                 F               0         Blade 1 Y translation displacement, node 18, m
        171   -1.038E+00                                 F               0         Blade 1 Z translation displacement, node 18, m
        172    2.683E+01                                 F               0         Blade 1 X translation displacement, node 19, m
        173   -5.585E+00                                 F               0         Blade 1 Y translation displacement, node 19, m
        174   -1.092E+00                                 F               0         Blade 1 Z translation displacement, node 19, m
        175    2.717E+01                                 F               0         Blade 1 X translation displacement, node 20, m
        176   -5.493E+00                                 F               0         Blade 1 Y translation displacement, node 20, m
        177   -1.145E+00                                 F               0         Blade 1 Z translation displacement, node 20, m
        178    2.752E+01                                 F               0         Blade 1 X translation displacement, node 21, m
        179   -5.401E+00                                 F               0         Blade 1 Y translation displacement, node 21, m
        180   -1.198E+00                                 F               0         Blade 1 Z translation displacement, node 21, m
        181    2.786E+01                                 F               0         Blade 1 X translation displacement, node 22, m
        182   -5.309E+00                                 F               0         Blade 1 Y translation displacement, node 22, m
        183   -1.251E+00                                 F               0         Blade 1 Z translation displacement, node 22, m
        184    2.821E+01                                 F               0         Blade 1 X translation displacement, node 23, m
        185   -5.217E+00                                 F               0         Blade 1 Y translation displacement, node 23, m
        186   -1.304E+00                                 F               0         Blade 1 Z translation displacement, node 23, m
        187    2.855E+01                                 F               0         Blade 1 X translation displacement, node 24, m
        188   -5.125E+00                                 F               0         Blade 1 Y translation displacement, node 24, m
        189   -1.357E+00                                 F               0         Blade 1 Z translation displacement, node 24, m
        190    2.890E+01                                 F               0         Blade 1 X translation displacement, node 25, m
        191   -5.033E+00                                 F               0         Blade 1 Y translation displacement, node 25, m
        192   -1.410E+00                                 F               0         Blade 1 Z translation displacement, node 25, m
        193    2.924E+01                                 F               0         Blade 1 X translation displacement, node 26, m
        194   -4.941E+00                                 F               0         Blade 1 Y translation displacement, node 26, m
        195   -1.463E+00                                 F               0         Blade 1 Z translation displacement, node 26, m
        196    2.959E+01                                 F               0         Blade 1 X translation displacement, node 27, m
        197   -4.849E+00                                 F               0         Blade 1 Y translation displacement, node 27, m
        198   -1.517E+00                                 F               0         Blade 1 Z translation displacement, node 27, m
        199    2.988E+01                                 F               0         Blade 1 X translation displacement, node 28, m
        200   -4.771E+00                                 F               0         Blade 1 Y translation displacement, node 28, m
        201   -1.562E+00                                 F               0         Blade 1 Z translation displacement, node 28, m
        202    8.663E-01, -4.733E-01, -1.596E-01         F               0         Blade 1 X orientation angle, node 1, rad
        203    4.604E-01,  8.806E-01, -1.123E-01         F               0         Blade 1 Y orientation angle, node 1, rad
        204    1.936E-01,  2.379E-02,  9.808E-01         F               0         Blade 1 Z orientation angle, node 1, rad
        205    8.663E-01, -4.733E-01, -1.596E-01         F               0         Blade 1 X orientation angle, node 2, rad
        206    4.604E-01,  8.806E-01, -1.123E-01         F               0         Blade 1 Y orientation angle, node 2, rad
        207    1.936E-01,  2.379E-02,  9.808E-01         F               0         Blade 1 Z orientation angle, node 2, rad
        208    9.508E-01, -2.511E-01, -1.816E-01         F               0         Blade 1 X orientation angle, node 3, rad
        209    2.420E-01,  9.677E-01, -7.124E-02         F               0         Blade 1 Y orientation angle, node 3, rad
        210    1.936E-01,  2.379E-02,  9.808E-01         F               0         Blade 1 Z orientation angle, node 3, rad
        211    9.601E-01, -2.100E-01, -1.845E-01         F               0         Blade 1 X orientation angle, node 4, rad
        212    2.016E-01,  9.774E-01, -6.351E-02         F               0         Blade 1 Y orientation angle, node 4, rad
        213    1.936E-01,  2.379E-02,  9.808E-01         F               0         Blade 1 Z orientation angle, node 4, rad
        214    9.663E-01, -1.775E-01, -1.865E-01         F               0         Blade 1 X orientation angle, node 5, rad
        215    1.697E-01,  9.838E-01, -5.736E-02         F               0         Blade 1 Y orientation angle, node 5, rad
        216    1.936E-01,  2.379E-02,  9.808E-01         F               0         Blade 1 Z orientation angle, node 5, rad
        217    9.705E-01, -1.513E-01, -1.879E-01         F               0         Blade 1 X orientation angle, node 6, rad
        218    1.440E-01,  9.882E-01, -5.239E-02         F               0         Blade 1 Y orientation angle, node 6, rad
        219    1.936E-01,  2.379E-02,  9.808E-01         F               0         Blade 1 Z orientation angle, node 6, rad
        220    9.734E-01, -1.298E-01, -1.890E-01         F               0         Blade 1 X orientation angle, node 7, rad
        221    1.228E-01,  9.913E-01, -4.828E-02         F               0         Blade 1 Y orientation angle, node 7, rad
        222    1.936E-01,  2.379E-02,  9.808E-01         F               0         Blade 1 Z orientation angle, node 7, rad
        223    9.754E-01, -1.117E-01, -1.899E-01         F               0         Blade 1 X orientation angle, node 8, rad
        224    1.051E-01,  9.935E-01, -4.484E-02         F               0         Blade 1 Y orientation angle, node 8, rad
        225    1.936E-01,  2.379E-02,  9.808E-01         F               0         Blade 1 Z orientation angle, node 8, rad
        226    9.769E-01, -9.647E-02, -1.905E-01         F               0         Blade 1 X orientation angle, node 9, rad
        227    9.008E-02,  9.951E-01, -4.192E-02         F               0         Blade 1 Y orientation angle, node 9, rad