
Linearized model: Predictions were generated on 12-Jan-2024 at 08:43:17 using OpenFAST, compiled as a 64-bit application using single precision at commit v3.5.1
 linked with  NWTC Subroutine Library; ElastoDyn; InflowWind; AeroDyn; ServoDyn; HydroDyn; MAP++ (<1.20.10>, <Oct-20-2023>)

Description from the FAST input file: CCT-9 Campign 4 model. Input files to be run with OpenFAST 3.5.0. GitHub branch from Lu Wang (https://github.com/luwang00/openfast/tree/dev) compiled on March 7, 2023.

Simulation information:
   Simulation time:                   507.9000 s
   Rotor Speed:                         0.7078 rad/s
   Azimuth:                             2.7232 rad
   Wind Speed:                          8.0000 m/s
   Number of continuous states:        22
   Number of discrete states:           0
   Number of constraint states:         0
   Number of inputs:                 1890
   Number of outputs:                  38
   Jacobians included in this file?    No

Order of continuous states:
   Row/Column Operating Point                     Rotating Frame? Derivative Order Description
   ---------- ---------------                     --------------- ---------------- -----------
          1    5.745E+00                                 F               2         Platform horizontal surge translation DOF (internal DOF index = DOF_Sg), m
          2   -4.667E-01                                 F               2         Platform horizontal sway translation DOF (internal DOF index = DOF_Sw), m
          3   -1.025E-01                                 F               2         Platform vertical heave translation DOF (internal DOF index = DOF_Hv), m
          4    4.550E-02                                 F               2         Platform roll tilt rotation DOF (internal DOF index = DOF_R), rad
          5    8.563E-02                                 F               2         Platform pitch tilt rotation DOF (internal DOF index = DOF_P), rad
          6    2.921E-03                                 F               2         Platform yaw rotation DOF (internal DOF index = DOF_Y), rad
          7    4.673E-01                                 F               2         1st tower fore-aft bending mode DOF (internal DOF index = DOF_TFA1), m
          8    1.771E-01                                 F               2         1st tower side-to-side bending mode DOF (internal DOF index = DOF_TSS1), m
          9    1.463E-03                                 F               2         2nd tower fore-aft bending mode DOF (internal DOF index = DOF_TFA2), m
         10    7.734E-05                                 F               2         2nd tower side-to-side bending mode DOF (internal DOF index = DOF_TSS2), m
         11    1.152E+00                                 F               2         Variable speed generator DOF (internal DOF index = DOF_GeAz), rad
         12   -5.315E-03                                 F               2         First time derivative of Platform horizontal surge translation DOF (internal DOF index = DOF_Sg), m/s
         13    2.327E-04                                 F               2         First time derivative of Platform horizontal sway translation DOF (internal DOF index = DOF_Sw), m/s
         14    3.101E-03                                 F               2         First time derivative of Platform vertical heave translation DOF (internal DOF index = DOF_Hv), m/s
         15   -2.653E-04                                 F               2         First time derivative of Platform roll tilt rotation DOF (internal DOF index = DOF_R), rad/s
         16    1.468E-05                                 F               2         First time derivative of Platform pitch tilt rotation DOF (internal DOF index = DOF_P), rad/s
         17    4.264E-05                                 F               2         First time derivative of Platform yaw rotation DOF (internal DOF index = DOF_Y), rad/s
         18   -2.886E-04                                 F               2         First time derivative of 1st tower fore-aft bending mode DOF (internal DOF index = DOF_TFA1), m/s
         19   -1.833E-03                                 F               2         First time derivative of 1st tower side-to-side bending mode DOF (internal DOF index = DOF_TSS1), m/s
         20    2.311E-06                                 F               2         First time derivative of 2nd tower fore-aft bending mode DOF (internal DOF index = DOF_TFA2), m/s
         21   -3.220E-07                                 F               2         First time derivative of 2nd tower side-to-side bending mode DOF (internal DOF index = DOF_TSS2), m/s
         22    7.078E-01                                 F               2         First time derivative of Variable speed generator DOF (internal DOF index = DOF_GeAz), rad/s

Order of continuous state derivatives:
   Row/Column Operating Point                     Rotating Frame? Derivative Order Description
   ---------- ---------------                     --------------- ---------------- -----------
          1   -5.315E-03                                 F               2         First time derivative of Platform horizontal surge translation DOF (internal DOF index = DOF_Sg), m/s
          2    2.327E-04                                 F               2         First time derivative of Platform horizontal sway translation DOF (internal DOF index = DOF_Sw), m/s
          3    3.101E-03                                 F               2         First time derivative of Platform vertical heave translation DOF (internal DOF index = DOF_Hv), m/s
          4   -2.653E-04                                 F               2         First time derivative of Platform roll tilt rotation DOF (internal DOF index = DOF_R), rad/s
          5    1.468E-05                                 F               2         First time derivative of Platform pitch tilt rotation DOF (internal DOF index = DOF_P), rad/s
          6    4.264E-05                                 F               2         First time derivative of Platform yaw rotation DOF (internal DOF index = DOF_Y), rad/s
          7   -2.886E-04                                 F               2         First time derivative of 1st tower fore-aft bending mode DOF (internal DOF index = DOF_TFA1), m/s
          8   -1.833E-03                                 F               2         First time derivative of 1st tower side-to-side bending mode DOF (internal DOF index = DOF_TSS1), m/s
          9    2.311E-06                                 F               2         First time derivative of 2nd tower fore-aft bending mode DOF (internal DOF index = DOF_TFA2), m/s
         10   -3.220E-07                                 F               2         First time derivative of 2nd tower side-to-side bending mode DOF (internal DOF index = DOF_TSS2), m/s
         11    7.078E-01                                 F               2         First time derivative of Variable speed generator DOF (internal DOF index = DOF_GeAz), rad/s
         12   -1.534E-04                                 F               2         First time derivative of First time derivative of Platform horizontal surge translation DOF (internal DOF index = DOF_Sg), m/s/s
         13   -6.744E-04                                 F               2         First time derivative of First time derivative of Platform horizontal sway translation DOF (internal DOF index = DOF_Sw), m/s/s
         14   -3.883E-04                                 F               2         First time derivative of First time derivative of Platform vertical heave translation DOF (internal DOF index = DOF_Hv), m/s/s
         15    3.384E-05                                 F               2         First time derivative of First time derivative of Platform roll tilt rotation DOF (internal DOF index = DOF_R), rad/s/s
         16   -5.014E-06                                 F               2         First time derivative of First time derivative of Platform pitch tilt rotation DOF (internal DOF index = DOF_P), rad/s/s
         17   -5.077E-06                                 F               2         First time derivative of First time derivative of Platform yaw rotation DOF (internal DOF index = DOF_Y), rad/s/s
         18    1.176E-03                                 F               2         First time derivative of First time derivative of 1st tower fore-aft bending mode DOF (internal DOF index = DOF_TFA1), m/s/s
         19   -2.022E-04                                 F               2         First time derivative of First time derivative of 1st tower side-to-side bending mode DOF (internal DOF index = DOF_TSS1), m/s/s
         20   -9.394E-06                                 F               2         First time derivative of First time derivative of 2nd tower fore-aft bending mode DOF (internal DOF index = DOF_TFA2), m/s/s
         21   -2.586E-07                                 F               2         First time derivative of First time derivative of 2nd tower side-to-side bending mode DOF (internal DOF index = DOF_TSS2), m/s/s
         22    1.590E-04                                 F               2         First time derivative of First time derivative of Variable speed generator DOF (internal DOF index = DOF_GeAz), rad/s/s

Order of inputs:
     Column   Operating Point                     Rotating Frame? Derivative Order Description
   ---------- ---------------                     --------------- ---------------- -----------
          1    5.299E+01                                 F               0         Blade 1 X force, node 1, N
          2   -5.915E+01                                 F               0         Blade 1 Y force, node 1, N
          3    1.324E+01                                 F               0         Blade 1 Z force, node 1, N
          4    2.134E+02                                 F               0         Blade 1 X force, node 2, N
          5   -1.056E+02                                 F               0         Blade 1 Y force, node 2, N
          6    6.353E-01                                 F               0         Blade 1 Z force, node 2, N
          7    2.708E+02                                 F               0         Blade 1 X force, node 3, N
          8   -6.633E+01                                 F               0         Blade 1 Y force, node 3, N
          9   -2.608E+01                                 F               0         Blade 1 Z force, node 3, N
         10    3.510E+02                                 F               0         Blade 1 X force, node 4, N
         11   -4.037E+01                                 F               0         Blade 1 Y force, node 4, N
         12   -5.194E+01                                 F               0         Blade 1 Z force, node 4, N
         13    4.313E+02                                 F               0         Blade 1 X force, node 5, N
         14   -1.441E+01                                 F               0         Blade 1 Y force, node 5, N
         15   -7.779E+01                                 F               0         Blade 1 Z force, node 5, N
         16    5.115E+02                                 F               0         Blade 1 X force, node 6, N
         17    1.154E+01                                 F               0         Blade 1 Y force, node 6, N
         18   -1.036E+02                                 F               0         Blade 1 Z force, node 6, N
         19    5.917E+02                                 F               0         Blade 1 X force, node 7, N
         20    3.750E+01                                 F               0         Blade 1 Y force, node 7, N
         21   -1.295E+02                                 F               0         Blade 1 Z force, node 7, N
         22    6.720E+02                                 F               0         Blade 1 X force, node 8, N
         23    6.346E+01                                 F               0         Blade 1 Y force, node 8, N
         24   -1.553E+02                                 F               0         Blade 1 Z force, node 8, N
         25    7.522E+02                                 F               0         Blade 1 X force, node 9, N
         26    8.942E+01                                 F               0         Blade 1 Y force, node 9, N
         27   -1.812E+02                                 F               0         Blade 1 Z force, node 9, N
         28    8.325E+02                                 F               0         Blade 1 X force, node 10, N
         29    1.154E+02                                 F               0         Blade 1 Y force, node 10, N
         30   -2.070E+02                                 F               0         Blade 1 Z force, node 10, N
         31    9.127E+02                                 F               0         Blade 1 X force, node 11, N
         32    1.413E+02                                 F               0         Blade 1 Y force, node 11, N
         33   -2.329E+02                                 F               0         Blade 1 Z force, node 11, N
         34    9.930E+02                                 F               0         Blade 1 X force, node 12, N
         35    1.673E+02                                 F               0         Blade 1 Y force, node 12, N
         36   -2.587E+02                                 F               0         Blade 1 Z force, node 12, N
         37    1.073E+03                                 F               0         Blade 1 X force, node 13, N
         38    1.932E+02                                 F               0         Blade 1 Y force, node 13, N
         39   -2.846E+02                                 F               0         Blade 1 Z force, node 13, N
         40    1.153E+03                                 F               0         Blade 1 X force, node 14, N
         41    2.192E+02                                 F               0         Blade 1 Y force, node 14, N
         42   -3.104E+02                                 F               0         Blade 1 Z force, node 14, N
         43    1.234E+03                                 F               0         Blade 1 X force, node 15, N
         44    2.452E+02                                 F               0         Blade 1 Y force, node 15, N
         45   -3.363E+02                                 F               0         Blade 1 Z force, node 15, N
         46    1.314E+03                                 F               0         Blade 1 X force, node 16, N
         47    2.711E+02                                 F               0         Blade 1 Y force, node 16, N
         48   -3.622E+02                                 F               0         Blade 1 Z force, node 16, N
         49    1.618E+03                                 F               0         Blade 1 X force, node 17, N
         50    3.433E+02                                 F               0         Blade 1 Y force, node 17, N
         51   -4.497E+02                                 F               0         Blade 1 Z force, node 17, N
         52    1.247E+03                                 F               0         Blade 1 X force, node 18, N
         53    2.563E+02                                 F               0         Blade 1 Y force, node 18, N
         54   -3.433E+02                                 F               0         Blade 1 Z force, node 18, N
         55    1.546E+03                                 F               0         Blade 1 X force, node 19, N
         56    3.027E+02                                 F               0         Blade 1 Y force, node 19, N
         57   -4.197E+02                                 F               0         Blade 1 Z force, node 19, N
         58    1.331E+03                                 F               0         Blade 1 X force, node 20, N
         59    2.487E+02                                 F               0         Blade 1 Y force, node 20, N
         60   -3.566E+02                                 F               0         Blade 1 Z force, node 20, N
         61    1.987E+03                                 F               0         Blade 1 X force, node 21, N
         62    3.516E+02                                 F               0         Blade 1 Y force, node 21, N
         63   -5.244E+02                                 F               0         Blade 1 Z force, node 21, N
         64    1.771E+03                                 F               0         Blade 1 X force, node 22, N
         65    2.966E+02                                 F               0         Blade 1 Y force, node 22, N
         66   -4.608E+02                                 F               0         Blade 1 Z force, node 22, N
         67    1.835E+03                                 F               0         Blade 1 X force, node 23, N
         68    2.923E+02                                 F               0         Blade 1 Y force, node 23, N
         69   -4.715E+02                                 F               0         Blade 1 Z force, node 23, N
         70    1.932E+03                                 F               0         Blade 1 X force, node 24, N
         71    2.929E+02                                 F               0         Blade 1 Y force, node 24, N
         72   -4.904E+02                                 F               0         Blade 1 Z force, node 24, N
         73    1.995E+03                                 F               0         Blade 1 X force, node 25, N
         74    2.878E+02                                 F               0         Blade 1 Y force, node 25, N
         75   -5.006E+02                                 F               0         Blade 1 Z force, node 25, N
         76    2.068E+03                                 F               0         Blade 1 X force, node 26, N
         77    2.843E+02                                 F               0         Blade 1 Y force, node 26, N
         78   -5.135E+02                                 F               0         Blade 1 Z force, node 26, N
         79    2.496E+03                                 F               0         Blade 1 X force, node 27, N
         80    3.262E+02                                 F               0         Blade 1 Y force, node 27, N
         81   -6.128E+02                                 F               0         Blade 1 Z force, node 27, N
         82    1.862E+03                                 F               0         Blade 1 X force, node 28, N
         83    2.316E+02                                 F               0         Blade 1 Y force, node 28, N
         84   -4.526E+02                                 F               0         Blade 1 Z force, node 28, N
         85    2.289E+03                                 F               0         Blade 1 X force, node 29, N
         86    2.731E+02                                 F               0         Blade 1 Y force, node 29, N
         87   -5.518E+02                                 F               0         Blade 1 Z force, node 29, N
         88    1.957E+03                                 F               0         Blade 1 X force, node 30, N
         89    2.241E+02                                 F               0         Blade 1 Y force, node 30, N
         90   -4.680E+02                                 F               0         Blade 1 Z force, node 30, N
         91    2.842E+03                                 F               0         Blade 1 X force, node 31, N
         92    3.102E+02                                 F               0         Blade 1 Y force, node 31, N
         93   -6.736E+02                                 F               0         Blade 1 Z force, node 31, N
         94    2.509E+03                                 F               0         Blade 1 X force, node 32, N
         95    2.608E+02                                 F               0         Blade 1 Y force, node 32, N
         96   -5.895E+02                                 F               0         Blade 1 Z force, node 32, N
         97    2.582E+03                                 F               0         Blade 1 X force, node 33, N
         98    2.565E+02                                 F               0         Blade 1 Y force, node 33, N
         99   -6.019E+02                                 F               0         Blade 1 Z force, node 33, N
        100    2.655E+03                                 F               0         Blade 1 X force, node 34, N
        101    2.522E+02                                 F               0         Blade 1 Y force, node 34, N
        102   -6.144E+02                                 F               0         Blade 1 Z force, node 34, N
        103    2.729E+03                                 F               0         Blade 1 X force, node 35, N
        104    2.477E+02                                 F               0         Blade 1 Y force, node 35, N
        105   -6.268E+02                                 F               0         Blade 1 Z force, node 35, N
        106    2.801E+03                                 F               0         Blade 1 X force, node 36, N
        107    2.431E+02                                 F               0         Blade 1 Y force, node 36, N
        108   -6.390E+02                                 F               0         Blade 1 Z force, node 36, N
        109    3.363E+03                                 F               0         Blade 1 X force, node 37, N
        110    2.783E+02                                 F               0         Blade 1 Y force, node 37, N
        111   -7.618E+02                                 F               0         Blade 1 Z force, node 37, N
        112    2.458E+03                                 F               0         Blade 1 X force, node 38, N
        113    1.941E+02                                 F               0         Blade 1 Y force, node 38, N
        114   -5.531E+02                                 F               0         Blade 1 Z force, node 38, N
        115    3.021E+03                                 F               0         Blade 1 X force, node 39, N
        116    2.292E+02                                 F               0         Blade 1 Y force, node 39, N
        117   -6.760E+02                                 F               0         Blade 1 Z force, node 39, N
        118    2.582E+03                                 F               0         Blade 1 X force, node 40, N
        119    1.883E+02                                 F               0         Blade 1 Y force, node 40, N
        120   -5.749E+02                                 F               0         Blade 1 Z force, node 40, N
        121    3.679E+03                                 F               0         Blade 1 X force, node 41, N
        122    2.560E+02                                 F               0         Blade 1 Y force, node 41, N
        123   -8.141E+02                                 F               0         Blade 1 Z force, node 41, N
        124    3.239E+03                                 F               0         Blade 1 X force, node 42, N
        125    2.148E+02                                 F               0         Blade 1 Y force, node 42, N
        126   -7.126E+02                                 F               0         Blade 1 Z force, node 42, N
        127    3.311E+03                                 F               0         Blade 1 X force, node 43, N
        128    2.099E+02                                 F               0         Blade 1 Y force, node 43, N
        129   -7.246E+02                                 F               0         Blade 1 Z force, node 43, N
        130    3.401E+03                                 F               0         Blade 1 X force, node 44, N
        131    2.059E+02                                 F               0         Blade 1 Y force, node 44, N
        132   -7.404E+02                                 F               0         Blade 1 Z force, node 44, N
        133    3.437E+03                                 F               0         Blade 1 X force, node 45, N
        134    1.988E+02                                 F               0         Blade 1 Y force, node 45, N
        135   -7.446E+02                                 F               0         Blade 1 Z force, node 45, N
        136    3.527E+03                                 F               0         Blade 1 X force, node 46, N
        137    1.948E+02                                 F               0         Blade 1 Y force, node 46, N
        138   -7.605E+02                                 F               0         Blade 1 Z force, node 46, N
        139    4.232E+03                                 F               0         Blade 1 X force, node 47, N
        140    2.224E+02                                 F               0         Blade 1 Y force, node 47, N
        141   -9.078E+02                                 F               0         Blade 1 Z force, node 47, N
        142    3.039E+03                                 F               0         Blade 1 X force, node 48, N
        143    1.520E+02                                 F               0         Blade 1 Y force, node 48, N
        144   -6.489E+02                                 F               0         Blade 1 Z force, node 48, N
        145    3.743E+03                                 F               0         Blade 1 X force, node 49, N
        146    1.794E+02                                 F               0         Blade 1 Y force, node 49, N
        147   -7.961E+02                                 F               0         Blade 1 Z force, node 49, N
        148    3.207E+03                                 F               0         Blade 1 X force, node 50, N
        149    1.472E+02                                 F               0         Blade 1 Y force, node 50, N
        150   -6.796E+02                                 F               0         Blade 1 Z force, node 50, N
        151    4.493E+03                                 F               0         Blade 1 X force, node 51, N
        152    1.960E+02                                 F               0         Blade 1 Y force, node 51, N
        153   -9.480E+02                                 F               0         Blade 1 Z force, node 51, N
        154    3.959E+03                                 F               0         Blade 1 X force, node 52, N
        155    1.639E+02                                 F               0         Blade 1 Y force, node 52, N
        156   -8.317E+02                                 F               0         Blade 1 Z force, node 52, N
        157    4.031E+03                                 F               0         Blade 1 X force, node 53, N
        158    1.588E+02                                 F               0         Blade 1 Y force, node 53, N
        159   -8.438E+02                                 F               0         Blade 1 Z force, node 53, N
        160    4.149E+03                                 F               0         Blade 1 X force, node 54, N
        161    1.553E+02                                 F               0         Blade 1 Y force, node 54, N
        162   -8.652E+02                                 F               0         Blade 1 Z force, node 54, N
        163    4.131E+03                                 F               0         Blade 1 X force, node 55, N
        164    1.467E+02                                 F               0         Blade 1 Y force, node 55, N
        165   -8.582E+02                                 F               0         Blade 1 Z force, node 55, N
        166    4.248E+03                                 F               0         Blade 1 X force, node 56, N
        167    1.431E+02                                 F               0         Blade 1 Y force, node 56, N
        168   -8.795E+02                                 F               0         Blade 1 Z force, node 56, N
        169    5.102E+03                                 F               0         Blade 1 X force, node 57, N
        170    1.622E+02                                 F               0         Blade 1 Y force, node 57, N
        171   -1.053E+03                                 F               0         Blade 1 Z force, node 57, N
        172    3.610E+03                                 F               0         Blade 1 X force, node 58, N
        173    1.082E+02                                 F               0         Blade 1 Y force, node 58, N
        174   -7.421E+02                                 F               0         Blade 1 Z force, node 58, N
        175    4.464E+03                                 F               0         Blade 1 X force, node 59, N
        176    1.273E+02                                 F               0         Blade 1 Y force, node 59, N
        177   -9.151E+02                                 F               0         Blade 1 Z force, node 59, N
        178    3.842E+03                                 F               0         Blade 1 X force, node 60, N
        179    1.039E+02                                 F               0         Blade 1 Y force, node 60, N
        180   -7.852E+02                                 F               0         Blade 1 Z force, node 60, N
        181    5.303E+03                                 F               0         Blade 1 X force, node 61, N
        182    1.347E+02                                 F               0         Blade 1 Y force, node 61, N
        183   -1.080E+03                                 F               0         Blade 1 Z force, node 61, N
        184    4.678E+03                                 F               0         Blade 1 X force, node 62, N