
Linearized model: Predictions were generated on 12-Jan-2024 at 08:43:17 using OpenFAST, compiled as a 64-bit application using single precision at commit v3.5.1
 linked with  NWTC Subroutine Library; ElastoDyn; InflowWind; AeroDyn; ServoDyn; HydroDyn; MAP++ (<1.20.10>, <Oct-20-2023>)

Description from the FAST input file: CCT-9 Campign 4 model. Input files to be run with OpenFAST 3.5.0. GitHub branch from Lu Wang (https://github.com/luwang00/openfast/tree/dev) compiled on March 7, 2023.

Simulation information:
   Simulation time:                   505.7000 s
   Rotor Speed:                         0.7075 rad/s
   Azimuth:                             1.1665 rad
   Wind Speed:                          8.0000 m/s
   Number of continuous states:         0
   Number of discrete states:           0
   Number of constraint states:         0
   Number of inputs:                 1746
   Number of outputs:                   4
   Jacobians included in this file?    No

Order of inputs:
     Column   Operating Point                     Rotating Frame? Derivative Order Description
   ---------- ---------------                     --------------- ---------------- -----------
          1    7.320E+00                                 F               0         Tower X translation displacement, node 1, m
          2   -1.309E+00                                 F               0         Tower Y translation displacement, node 1, m
          3   -1.957E-01                                 F               0         Tower Z translation displacement, node 1, m
          4    8.380E+00                                 F               0         Tower X translation displacement, node 2, m
          5   -1.877E+00                                 F               0         Tower Y translation displacement, node 2, m
          6   -2.543E-01                                 F               0         Tower Z translation displacement, node 2, m
          7    9.456E+00                                 F               0         Tower X translation displacement, node 3, m
          8   -2.450E+00                                 F               0         Tower Y translation displacement, node 3, m
          9   -3.146E-01                                 F               0         Tower Z translation displacement, node 3, m
         10    1.054E+01                                 F               0         Tower X translation displacement, node 4, m
         11   -3.028E+00                                 F               0         Tower Y translation displacement, node 4, m
         12   -3.762E-01                                 F               0         Tower Z translation displacement, node 4, m
         13    1.164E+01                                 F               0         Tower X translation displacement, node 5, m
         14   -3.609E+00                                 F               0         Tower Y translation displacement, node 5, m
         15   -4.387E-01                                 F               0         Tower Z translation displacement, node 5, m
         16    1.275E+01                                 F               0         Tower X translation displacement, node 6, m
         17   -4.194E+00                                 F               0         Tower Y translation displacement, node 6, m
         18   -5.021E-01                                 F               0         Tower Z translation displacement, node 6, m
         19    1.386E+01                                 F               0         Tower X translation displacement, node 7, m
         20   -4.781E+00                                 F               0         Tower Y translation displacement, node 7, m
         21   -5.660E-01                                 F               0         Tower Z translation displacement, node 7, m
         22    1.497E+01                                 F               0         Tower X translation displacement, node 8, m
         23   -5.370E+00                                 F               0         Tower Y translation displacement, node 8, m
         24   -6.305E-01                                 F               0         Tower Z translation displacement, node 8, m
         25    1.609E+01                                 F               0         Tower X translation displacement, node 9, m
         26   -5.961E+00                                 F               0         Tower Y translation displacement, node 9, m
         27   -6.952E-01                                 F               0         Tower Z translation displacement, node 9, m
         28    1.720E+01                                 F               0         Tower X translation displacement, node 10, m
         29   -6.553E+00                                 F               0         Tower Y translation displacement, node 10, m
         30   -7.602E-01                                 F               0         Tower Z translation displacement, node 10, m
         31    1.832E+01                                 F               0         Tower X translation displacement, node 11, m
         32   -7.145E+00                                 F               0         Tower Y translation displacement, node 11, m
         33   -8.252E-01                                 F               0         Tower Z translation displacement, node 11, m
         34    9.964E-01,  4.767E-03, -8.514E-02         F               0         Tower X orientation angle, node 1, rad
         35   -8.451E-04,  9.989E-01,  4.604E-02         F               0         Tower Y orientation angle, node 1, rad
         36    8.527E-02, -4.580E-02,  9.953E-01         F               0         Tower Z orientation angle, node 1, rad
         37    9.963E-01,  4.823E-03, -8.636E-02         F               0         Tower X orientation angle, node 2, rad
         38   -8.091E-04,  9.989E-01,  4.646E-02         F               0         Tower Y orientation angle, node 2, rad
         39    8.649E-02, -4.621E-02,  9.952E-01         F               0         Tower Z orientation angle, node 2, rad
         40    9.962E-01,  4.872E-03, -8.741E-02         F               0         Tower X orientation angle, node 3, rad
         41   -7.763E-04,  9.989E-01,  4.683E-02         F               0         Tower Y orientation angle, node 3, rad
         42    8.754E-02, -4.658E-02,  9.951E-01         F               0         Tower Z orientation angle, node 3, rad
         43    9.961E-01,  4.913E-03, -8.827E-02         F               0         Tower X orientation angle, node 4, rad
         44   -7.474E-04,  9.989E-01,  4.716E-02         F               0         Tower Y orientation angle, node 4, rad
         45    8.841E-02, -4.691E-02,  9.950E-01         F               0         Tower Z orientation angle, node 4, rad
         46    9.960E-01,  4.946E-03, -8.897E-02         F               0         Tower X orientation angle, node 5, rad
         47   -7.224E-04,  9.989E-01,  4.744E-02         F               0         Tower Y orientation angle, node 5, rad
         48    8.910E-02, -4.719E-02,  9.949E-01         F               0         Tower Z orientation angle, node 5, rad
         49    9.960E-01,  4.971E-03, -8.950E-02         F               0         Tower X orientation angle, node 6, rad
         50   -7.013E-04,  9.989E-01,  4.767E-02         F               0         Tower Y orientation angle, node 6, rad
         51    8.963E-02, -4.742E-02,  9.948E-01         F               0         Tower Z orientation angle, node 6, rad
         52    9.959E-01,  4.989E-03, -8.987E-02         F               0         Tower X orientation angle, node 7, rad
         53   -6.844E-04,  9.989E-01,  4.786E-02         F               0         Tower Y orientation angle, node 7, rad
         54    9.001E-02, -4.761E-02,  9.948E-01         F               0         Tower Z orientation angle, node 7, rad
         55    9.959E-01,  5.002E-03, -9.013E-02         F               0         Tower X orientation angle, node 8, rad
         56   -6.713E-04,  9.988E-01,  4.801E-02         F               0         Tower Y orientation angle, node 8, rad
         57    9.027E-02, -4.775E-02,  9.948E-01         F               0         Tower Z orientation angle, node 8, rad
         58    9.959E-01,  5.010E-03, -9.030E-02         F               0         Tower X orientation angle, node 9, rad
         59   -6.616E-04,  9.988E-01,  4.812E-02         F               0         Tower Y orientation angle, node 9, rad
         60    9.044E-02, -4.786E-02,  9.948E-01         F               0         Tower Z orientation angle, node 9, rad
         61    9.959E-01,  5.014E-03, -9.039E-02         F               0         Tower X orientation angle, node 10, rad
         62   -6.553E-04,  9.988E-01,  4.819E-02         F               0         Tower Y orientation angle, node 10, rad
         63    9.053E-02, -4.793E-02,  9.947E-01         F               0         Tower Z orientation angle, node 10, rad
         64    9.959E-01,  5.016E-03, -9.043E-02         F               0         Tower X orientation angle, node 11, rad
         65   -6.519E-04,  9.988E-01,  4.823E-02         F               0         Tower Y orientation angle, node 11, rad
         66    9.057E-02, -4.797E-02,  9.947E-01         F               0         Tower Z orientation angle, node 11, rad
         67   -5.119E-03                                 F               0         Tower X translation velocity, node 1, m/s
         68    6.974E-03                                 F               0         Tower Y translation velocity, node 1, m/s
         69    3.245E-03                                 F               0         Tower Z translation velocity, node 1, m/s
         70   -5.045E-03                                 F               0         Tower X translation velocity, node 2, m/s
         71    1.069E-02                                 F               0         Tower Y translation velocity, node 2, m/s
         72    3.410E-03                                 F               0         Tower Z translation velocity, node 2, m/s
         73   -4.956E-03                                 F               0         Tower X translation velocity, node 3, m/s
         74    1.446E-02                                 F               0         Tower Y translation velocity, node 3, m/s
         75    3.578E-03                                 F               0         Tower Z translation velocity, node 3, m/s
         76   -4.855E-03                                 F               0         Tower X translation velocity, node 4, m/s
         77    1.826E-02                                 F               0         Tower Y translation velocity, node 4, m/s
         78    3.748E-03                                 F               0         Tower Z translation velocity, node 4, m/s
         79   -4.742E-03                                 F               0         Tower X translation velocity, node 5, m/s
         80    2.209E-02                                 F               0         Tower Y translation velocity, node 5, m/s
         81    3.919E-03                                 F               0         Tower Z translation velocity, node 5, m/s
         82   -4.617E-03                                 F               0         Tower X translation velocity, node 6, m/s
         83    2.595E-02                                 F               0         Tower Y translation velocity, node 6, m/s
         84    4.091E-03                                 F               0         Tower Z translation velocity, node 6, m/s
         85   -4.483E-03                                 F               0         Tower X translation velocity, node 7, m/s
         86    2.982E-02                                 F               0         Tower Y translation velocity, node 7, m/s
         87    4.264E-03                                 F               0         Tower Z translation velocity, node 7, m/s
         88   -4.338E-03                                 F               0         Tower X translation velocity, node 8, m/s
         89    3.371E-02                                 F               0         Tower Y translation velocity, node 8, m/s
         90    4.438E-03                                 F               0         Tower Z translation velocity, node 8, m/s
         91   -4.186E-03                                 F               0         Tower X translation velocity, node 9, m/s
         92    3.762E-02                                 F               0         Tower Y translation velocity, node 9, m/s
         93    4.611E-03                                 F               0         Tower Z translation velocity, node 9, m/s
         94   -4.027E-03                                 F               0         Tower X translation velocity, node 10, m/s
         95    4.153E-02                                 F               0         Tower Y translation velocity, node 10, m/s
         96    4.785E-03                                 F               0         Tower Z translation velocity, node 10, m/s
         97   -3.865E-03                                 F               0         Tower X translation velocity, node 11, m/s
         98    4.544E-02                                 F               0         Tower Y translation velocity, node 11, m/s
         99    4.959E-03                                 F               0         Tower Z translation velocity, node 11, m/s
        100    1.908E+01                                 F               0         Hub X translation displacement, node 1, m
        101   -7.576E+00                                 F               0         Hub Y translation displacement, node 1, m
        102    1.102E-01                                 F               0         Hub Z translation displacement, node 1, m
        103    9.810E-01,  1.000E-02, -1.939E-01         F               0         Hub X orientation angle, node 1, rad
        104    1.783E-01,  3.495E-01,  9.198E-01         F               0         Hub Y orientation angle, node 1, rad
        105    7.698E-02, -9.369E-01,  3.411E-01         F               0         Hub Z orientation angle, node 1, rad
        106    6.937E-01                                 F               0         Hub X rotation velocity, node 1, rad/s
        107    7.087E-03                                 F               0         Hub Y rotation velocity, node 1, rad/s
        108   -1.371E-01                                 F               0         Hub Z rotation velocity, node 1, rad/s
        109    9.752E-01, -3.706E-04, -2.211E-01         F               0         Blade root 1 X orientation angle, node 1, rad
        110    2.073E-01,  3.497E-01,  9.137E-01         F               0         Blade root 1 Y orientation angle, node 1, rad
        111    7.698E-02, -9.369E-01,  3.411E-01         F               0         Blade root 1 Z orientation angle, node 1, rad
        112    9.812E-01,  3.925E-02, -1.889E-01         F               0         Blade root 2 X orientation angle, node 1, rad
        113    6.645E-03, -9.854E-01, -1.702E-01         F               0         Blade root 2 Y orientation angle, node 1, rad
        114   -1.929E-01,  1.657E-01, -9.671E-01         F               0         Blade root 2 Z orientation angle, node 1, rad
        115    9.852E-01, -8.887E-03, -1.714E-01         F               0         Blade root 3 X orientation angle, node 1, rad
        116   -1.266E-01,  6.366E-01, -7.607E-01         F               0         Blade root 3 Y orientation angle, node 1, rad
        117    1.159E-01,  7.711E-01,  6.260E-01         F               0         Blade root 3 Z orientation angle, node 1, rad
        118    1.893E+01                                 F               0         Blade 1 X translation displacement, node 1, m
        119   -1.277E+01                                 F               0         Blade 1 Y translation displacement, node 1, m
        120   -3.510E+00                                 F               0         Blade 1 Z translation displacement, node 1, m
        121    1.889E+01                                 F               0         Blade 1 X translation displacement, node 2, m
        122   -1.402E+01                                 F               0         Blade 1 Y translation displacement, node 2, m
        123   -4.382E+00                                 F               0         Blade 1 Z translation displacement, node 2, m
        124    1.839E+01                                 F               0         Blade 1 X translation displacement, node 3, m
        125   -3.102E+01                                 F               0         Blade 1 Y translation displacement, node 3, m
        126   -1.624E+01                                 F               0         Blade 1 Z translation displacement, node 3, m
        127    1.828E+01                                 F               0         Blade 1 X translation displacement, node 4, m
        128   -3.465E+01                                 F               0         Blade 1 Y translation displacement, node 4, m
        129   -1.877E+01                                 F               0         Blade 1 Z translation displacement, node 4, m
        130    1.818E+01                                 F               0         Blade 1 X translation displacement, node 5, m
        131   -3.827E+01                                 F               0         Blade 1 Y translation displacement, node 5, m
        132   -2.130E+01                                 F               0         Blade 1 Z translation displacement, node 5, m
        133    1.807E+01                                 F               0         Blade 1 X translation displacement, node 6, m
        134   -4.189E+01                                 F               0         Blade 1 Y translation displacement, node 6, m
        135   -2.383E+01                                 F               0         Blade 1 Z translation displacement, node 6, m
        136    1.796E+01                                 F               0         Blade 1 X translation displacement, node 7, m
        137   -4.552E+01                                 F               0         Blade 1 Y translation displacement, node 7, m
        138   -2.635E+01                                 F               0         Blade 1 Z translation displacement, node 7, m
        139    1.786E+01                                 F               0         Blade 1 X translation displacement, node 8, m
        140   -4.914E+01                                 F               0         Blade 1 Y translation displacement, node 8, m
        141   -2.888E+01                                 F               0         Blade 1 Z translation displacement, node 8, m
        142    1.775E+01                                 F               0         Blade 1 X translation displacement, node 9, m
        143   -5.276E+01                                 F               0         Blade 1 Y translation displacement, node 9, m
        144   -3.141E+01                                 F               0         Blade 1 Z translation displacement, node 9, m
        145    1.764E+01                                 F               0         Blade 1 X translation displacement, node 10, m
        146   -5.639E+01                                 F               0         Blade 1 Y translation displacement, node 10, m
        147   -3.393E+01                                 F               0         Blade 1 Z translation displacement, node 10, m
        148    1.754E+01                                 F               0         Blade 1 X translation displacement, node 11, m
        149   -6.001E+01                                 F               0         Blade 1 Y translation displacement, node 11, m
        150   -3.646E+01                                 F               0         Blade 1 Z translation displacement, node 11, m
        151    1.743E+01                                 F               0         Blade 1 X translation displacement, node 12, m
        152   -6.364E+01                                 F               0         Blade 1 Y translation displacement, node 12, m
        153   -3.899E+01                                 F               0         Blade 1 Z translation displacement, node 12, m
        154    1.732E+01                                 F               0         Blade 1 X translation displacement, node 13, m
        155   -6.726E+01                                 F               0         Blade 1 Y translation displacement, node 13, m
        156   -4.152E+01                                 F               0         Blade 1 Z translation displacement, node 13, m
        157    1.722E+01                                 F               0         Blade 1 X translation displacement, node 14, m
        158   -7.088E+01                                 F               0         Blade 1 Y translation displacement, node 14, m
        159   -4.404E+01                                 F               0         Blade 1 Z translation displacement, node 14, m
        160    1.711E+01                                 F               0         Blade 1 X translation displacement, node 15, m
        161   -7.451E+01                                 F               0         Blade 1 Y translation displacement, node 15, m
        162   -4.657E+01                                 F               0         Blade 1 Z translation displacement, node 15, m
        163    1.700E+01                                 F               0         Blade 1 X translation displacement, node 16, m
        164   -7.813E+01                                 F               0         Blade 1 Y translation displacement, node 16, m
        165   -4.910E+01                                 F               0         Blade 1 Z translation displacement, node 16, m
        166    1.690E+01                                 F               0         Blade 1 X translation displacement, node 17, m
        167   -8.175E+01                                 F               0         Blade 1 Y translation displacement, node 17, m
        168   -5.163E+01                                 F               0         Blade 1 Z translation displacement, node 17, m
        169    1.679E+01                                 F               0         Blade 1 X translation displacement, node 18, m
        170   -8.538E+01                                 F               0         Blade 1 Y translation displacement, node 18, m
        171   -5.415E+01                                 F               0         Blade 1 Z translation displacement, node 18, m
        172    1.668E+01                                 F               0         Blade 1 X translation displacement, node 19, m
        173   -8.900E+01                                 F               0         Blade 1 Y translation displacement, node 19, m
        174   -5.668E+01                                 F               0         Blade 1 Z translation displacement, node 19, m
        175    1.658E+01                                 F               0         Blade 1 X translation displacement, node 20, m
        176   -9.262E+01                                 F               0         Blade 1 Y translation displacement, node 20, m
        177   -5.921E+01                                 F               0         Blade 1 Z translation displacement, node 20, m
        178    1.647E+01                                 F               0         Blade 1 X translation displacement, node 21, m
        179   -9.625E+01                                 F               0         Blade 1 Y translation displacement, node 21, m
        180   -6.173E+01                                 F               0         Blade 1 Z translation displacement, node 21, m
        181    1.636E+01                                 F               0         Blade 1 X translation displacement, node 22, m
        182   -9.987E+01                                 F               0         Blade 1 Y translation displacement, node 22, m
        183   -6.426E+01                                 F               0         Blade 1 Z translation displacement, node 22, m
        184    1.626E+01                                 F               0         Blade 1 X translation displacement, node 23, m
        185   -1.035E+02                                 F               0         Blade 1 Y translation displacement, node 23, m
        186   -6.679E+01                                 F               0         Blade 1 Z translation displacement, node 23, m
        187    1.615E+01                                 F               0         Blade 1 X translation displacement, node 24, m
        188   -1.071E+02                                 F               0         Blade 1 Y translation displacement, node 24, m
        189   -6.932E+01                                 F               0         Blade 1 Z translation displacement, node 24, m
        190    1.604E+01                                 F               0         Blade 1 X translation displacement, node 25, m
        191   -1.107E+02                                 F               0         Blade 1 Y translation displacement, node 25, m
        192   -7.184E+01                                 F               0         Blade 1 Z translation displacement, node 25, m
        193    1.594E+01                                 F               0         Blade 1 X translation displacement, node 26, m
        194   -1.144E+02                                 F               0         Blade 1 Y translation displacement, node 26, m
        195   -7.437E+01                                 F               0         Blade 1 Z translation displacement, node 26, m
        196    1.583E+01                                 F               0         Blade 1 X translation displacement, node 27, m
        197   -1.180E+02                                 F               0         Blade 1 Y translation displacement, node 27, m
        198   -7.690E+01                                 F               0         Blade 1 Z translation displacement, node 27, m
        199    1.574E+01                                 F               0         Blade 1 X translation displacement, node 28, m
        200   -1.211E+02                                 F               0         Blade 1 Y translation displacement, node 28, m
        201   -7.904E+01                                 F               0         Blade 1 Z translation displacement, node 28, m
        202    7.734E-01, -1.598E-01, -6.134E-01         F               0         Blade 1 X orientation angle, node 1, rad
        203    6.292E-01,  3.110E-01,  7.123E-01         F               0         Blade 1 Y orientation angle, node 1, rad
        204    7.698E-02, -9.369E-01,  3.411E-01         F               0         Blade 1 Z orientation angle, node 1, rad
        205    7.734E-01, -1.598E-01, -6.134E-01         F               0         Blade 1 X orientation angle, node 2, rad
        206    6.292E-01,  3.110E-01,  7.123E-01         F               0         Blade 1 Y orientation angle, node 2, rad
        207    7.698E-02, -9.369E-01,  3.411E-01         F               0         Blade 1 Z orientation angle, node 2, rad
        208    9.005E-01, -8.151E-02, -4.271E-01         F               0         Blade 1 X orientation angle, node 3, rad
        209    4.280E-01,  3.400E-01,  8.374E-01         F               0         Blade 1 Y orientation angle, node 3, rad
        210    7.698E-02, -9.369E-01,  3.411E-01         F               0         Blade 1 Z orientation angle, node 3, rad
        211    9.178E-01, -6.708E-02, -3.914E-01         F               0         Blade 1 X orientation angle, node 4, rad
        212    3.896E-01,  3.432E-01,  8.547E-01         F               0         Blade 1 Y orientation angle, node 4, rad
        213    7.698E-02, -9.369E-01,  3.411E-01         F               0         Blade 1 Z orientation angle, node 4, rad
        214    9.302E-01, -5.567E-02, -3.628E-01         F               0         Blade 1 X orientation angle, node 5, rad
        215    3.589E-01,  3.452E-01,  8.672E-01         F               0         Blade 1 Y orientation angle, node 5, rad
        216    7.698E-02, -9.369E-01,  3.411E-01         F               0         Blade 1 Z orientation angle, node 5, rad
        217    9.394E-01, -4.649E-02, -3.397E-01         F               0         Blade 1 X orientation angle, node 6, rad
        218    3.341E-01,  3.466E-01,  8.765E-01         F               0         Blade 1 Y orientation angle, node 6, rad
        219    7.698E-02, -9.369E-01,  3.411E-01         F               0         Blade 1 Z orientation angle, node 6, rad
        220    9.464E-01, -3.892E-02, -3.205E-01         F               0         Blade 1 X orientation angle, node 7, rad
        221    3.135E-01,  3.475E-01,  8.837E-01         F               0         Blade 1 Y orientation angle, node 7, rad
        222    7.698E-02, -9.369E-01,  3.411E-01         F               0         Blade 1 Z orientation angle, node 7, rad
        223    9.520E-01, -3.261E-02, -3.044E-01         F               0         Blade 1 X orientation angle, node 8, rad
        224    2.963E-01,  3.481E-01,  8.894E-01         F               0         Blade 1 Y orientation angle, node 8, rad
        225    7.698E-02, -9.369E-01,  3.411E-01         F               0         Blade 1 Z orientation angle, node 8, rad
        226    9.564E-01, -2.726E-02, -2.907E-01         F               0         Blade 1 X orientation angle, node 9, rad
        227    2.817E-01,  3.486E-01,  8.939E-01         F               0         Blade 1 Y orientation angle, node 9, rad