
Linearized model: Predictions were generated on 12-Jan-2024 at 08:43:17 using OpenFAST, compiled as a 64-bit application using single precision at commit v3.5.1
 linked with  NWTC Subroutine Library; ElastoDyn; InflowWind; AeroDyn; ServoDyn; HydroDyn; MAP++ (<1.20.10>, <Oct-20-2023>)

Description from the FAST input file: CCT-9 Campign 4 model. Input files to be run with OpenFAST 3.5.0. GitHub branch from Lu Wang (https://github.com/luwang00/openfast/tree/dev) compiled on March 7, 2023.

Simulation information:
   Simulation time:                   508.6500 s
   Rotor Speed:                         0.7079 rad/s
   Azimuth:                             3.2541 rad
   Wind Speed:                          8.0000 m/s
   Number of continuous states:         0
   Number of discrete states:           0
   Number of constraint states:         0
   Number of inputs:                 1746
   Number of outputs:                   4
   Jacobians included in this file?    No

Order of inputs:
     Column   Operating Point                     Rotating Frame? Derivative Order Description
   ---------- ---------------                     --------------- ---------------- -----------
          1    7.305E+00                                 F               0         Tower X translation displacement, node 1, m
          2   -1.291E+00                                 F               0         Tower Y translation displacement, node 1, m
          3   -1.858E-01                                 F               0         Tower Z translation displacement, node 1, m
          4    8.366E+00                                 F               0         Tower X translation displacement, node 2, m
          5   -1.849E+00                                 F               0         Tower Y translation displacement, node 2, m
          6   -2.440E-01                                 F               0         Tower Z translation displacement, node 2, m
          7    9.442E+00                                 F               0         Tower X translation displacement, node 3, m
          8   -2.412E+00                                 F               0         Tower Y translation displacement, node 3, m
          9   -3.039E-01                                 F               0         Tower Z translation displacement, node 3, m
         10    1.053E+01                                 F               0         Tower X translation displacement, node 4, m
         11   -2.979E+00                                 F               0         Tower Y translation displacement, node 4, m
         12   -3.650E-01                                 F               0         Tower Z translation displacement, node 4, m
         13    1.163E+01                                 F               0         Tower X translation displacement, node 5, m
         14   -3.550E+00                                 F               0         Tower Y translation displacement, node 5, m
         15   -4.271E-01                                 F               0         Tower Z translation displacement, node 5, m
         16    1.273E+01                                 F               0         Tower X translation displacement, node 6, m
         17   -4.124E+00                                 F               0         Tower Y translation displacement, node 6, m
         18   -4.900E-01                                 F               0         Tower Z translation displacement, node 6, m
         19    1.384E+01                                 F               0         Tower X translation displacement, node 7, m
         20   -4.700E+00                                 F               0         Tower Y translation displacement, node 7, m
         21   -5.535E-01                                 F               0         Tower Z translation displacement, node 7, m
         22    1.496E+01                                 F               0         Tower X translation displacement, node 8, m
         23   -5.279E+00                                 F               0         Tower Y translation displacement, node 8, m
         24   -6.174E-01                                 F               0         Tower Z translation displacement, node 8, m
         25    1.607E+01                                 F               0         Tower X translation displacement, node 9, m
         26   -5.858E+00                                 F               0         Tower Y translation displacement, node 9, m
         27   -6.817E-01                                 F               0         Tower Z translation displacement, node 9, m
         28    1.719E+01                                 F               0         Tower X translation displacement, node 10, m
         29   -6.439E+00                                 F               0         Tower Y translation displacement, node 10, m
         30   -7.461E-01                                 F               0         Tower Z translation displacement, node 10, m
         31    1.831E+01                                 F               0         Tower X translation displacement, node 11, m
         32   -7.021E+00                                 F               0         Tower Y translation displacement, node 11, m
         33   -8.107E-01                                 F               0         Tower Z translation displacement, node 11, m
         34    9.964E-01,  4.864E-03, -8.517E-02         F               0         Tower X orientation angle, node 1, rad
         35   -1.011E-03,  9.990E-01,  4.522E-02         F               0         Tower Y orientation angle, node 1, rad
         36    8.531E-02, -4.497E-02,  9.953E-01         F               0         Tower Z orientation angle, node 1, rad
         37    9.962E-01,  4.919E-03, -8.639E-02         F               0         Tower X orientation angle, node 2, rad
         38   -9.757E-04,  9.990E-01,  4.563E-02         F               0         Tower Y orientation angle, node 2, rad
         39    8.653E-02, -4.537E-02,  9.952E-01         F               0         Tower Z orientation angle, node 2, rad
         40    9.962E-01,  4.967E-03, -8.744E-02         F               0         Tower X orientation angle, node 3, rad
         41   -9.437E-04,  9.989E-01,  4.599E-02         F               0         Tower Y orientation angle, node 3, rad
         42    8.758E-02, -4.574E-02,  9.951E-01         F               0         Tower Z orientation angle, node 3, rad
         43    9.961E-01,  5.007E-03, -8.831E-02         F               0         Tower X orientation angle, node 4, rad
         44   -9.155E-04,  9.989E-01,  4.631E-02         F               0         Tower Y orientation angle, node 4, rad
         45    8.845E-02, -4.605E-02,  9.950E-01         F               0         Tower Z orientation angle, node 4, rad
         46    9.960E-01,  5.039E-03, -8.900E-02         F               0         Tower X orientation angle, node 5, rad
         47   -8.912E-04,  9.989E-01,  4.659E-02         F               0         Tower Y orientation angle, node 5, rad
         48    8.914E-02, -4.632E-02,  9.949E-01         F               0         Tower Z orientation angle, node 5, rad
         49    9.960E-01,  5.064E-03, -8.953E-02         F               0         Tower X orientation angle, node 6, rad
         50   -8.707E-04,  9.989E-01,  4.682E-02         F               0         Tower Y orientation angle, node 6, rad
         51    8.967E-02, -4.655E-02,  9.949E-01         F               0         Tower Z orientation angle, node 6, rad
         52    9.959E-01,  5.082E-03, -8.991E-02         F               0         Tower X orientation angle, node 7, rad
         53   -8.542E-04,  9.989E-01,  4.700E-02         F               0         Tower Y orientation angle, node 7, rad
         54    9.005E-02, -4.673E-02,  9.948E-01         F               0         Tower Z orientation angle, node 7, rad
         55    9.959E-01,  5.094E-03, -9.017E-02         F               0         Tower X orientation angle, node 8, rad
         56   -8.414E-04,  9.989E-01,  4.714E-02         F               0         Tower Y orientation angle, node 8, rad
         57    9.031E-02, -4.687E-02,  9.948E-01         F               0         Tower Z orientation angle, node 8, rad
         58    9.959E-01,  5.102E-03, -9.033E-02         F               0         Tower X orientation angle, node 9, rad
         59   -8.320E-04,  9.989E-01,  4.725E-02         F               0         Tower Y orientation angle, node 9, rad
         60    9.047E-02, -4.698E-02,  9.948E-01         F               0         Tower Z orientation angle, node 9, rad
         61    9.959E-01,  5.107E-03, -9.042E-02         F               0         Tower X orientation angle, node 10, rad
         62   -8.259E-04,  9.989E-01,  4.731E-02         F               0         Tower Y orientation angle, node 10, rad
         63    9.056E-02, -4.705E-02,  9.948E-01         F               0         Tower Z orientation angle, node 10, rad
         64    9.959E-01,  5.108E-03, -9.046E-02         F               0         Tower X orientation angle, node 11, rad
         65   -8.225E-04,  9.989E-01,  4.735E-02         F               0         Tower Y orientation angle, node 11, rad
         66    9.060E-02, -4.708E-02,  9.948E-01         F               0         Tower Z orientation angle, node 11, rad
         67   -5.197E-03                                 F               0         Tower X translation velocity, node 1, m/s
         68    4.160E-03                                 F               0         Tower Y translation velocity, node 1, m/s
         69    2.882E-03                                 F               0         Tower Z translation velocity, node 1, m/s
         70   -5.040E-03                                 F               0         Tower X translation velocity, node 2, m/s
         71    7.153E-03                                 F               0         Tower Y translation velocity, node 2, m/s
         72    3.004E-03                                 F               0         Tower Z translation velocity, node 2, m/s
         73   -4.869E-03                                 F               0         Tower X translation velocity, node 3, m/s
         74    1.020E-02                                 F               0         Tower Y translation velocity, node 3, m/s
         75    3.129E-03                                 F               0         Tower Z translation velocity, node 3, m/s
         76   -4.687E-03                                 F               0         Tower X translation velocity, node 4, m/s
         77    1.329E-02                                 F               0         Tower Y translation velocity, node 4, m/s
         78    3.255E-03                                 F               0         Tower Z translation velocity, node 4, m/s
         79   -4.495E-03                                 F               0         Tower X translation velocity, node 5, m/s
         80    1.642E-02                                 F               0         Tower Y translation velocity, node 5, m/s
         81    3.384E-03                                 F               0         Tower Z translation velocity, node 5, m/s
         82   -4.294E-03                                 F               0         Tower X translation velocity, node 6, m/s
         83    1.959E-02                                 F               0         Tower Y translation velocity, node 6, m/s
         84    3.513E-03                                 F               0         Tower Z translation velocity, node 6, m/s
         85   -4.085E-03                                 F               0         Tower X translation velocity, node 7, m/s
         86    2.278E-02                                 F               0         Tower Y translation velocity, node 7, m/s
         87    3.644E-03                                 F               0         Tower Z translation velocity, node 7, m/s
         88   -3.869E-03                                 F               0         Tower X translation velocity, node 8, m/s
         89    2.599E-02                                 F               0         Tower Y translation velocity, node 8, m/s
         90    3.775E-03                                 F               0         Tower Z translation velocity, node 8, m/s
         91   -3.648E-03                                 F               0         Tower X translation velocity, node 9, m/s
         92    2.922E-02                                 F               0         Tower Y translation velocity, node 9, m/s
         93    3.908E-03                                 F               0         Tower Z translation velocity, node 9, m/s
         94   -3.421E-03                                 F               0         Tower X translation velocity, node 10, m/s
         95    3.246E-02                                 F               0         Tower Y translation velocity, node 10, m/s
         96    4.040E-03                                 F               0         Tower Z translation velocity, node 10, m/s
         97   -3.193E-03                                 F               0         Tower X translation velocity, node 11, m/s
         98    3.571E-02                                 F               0         Tower Y translation velocity, node 11, m/s
         99    4.173E-03                                 F               0         Tower Z translation velocity, node 11, m/s
        100    1.907E+01                                 F               0         Hub X translation displacement, node 1, m
        101   -7.446E+00                                 F               0         Hub Y translation displacement, node 1, m
        102    1.253E-01                                 F               0         Hub Z translation displacement, node 1, m
        103    9.810E-01,  1.000E-02, -1.939E-01         F               0         Hub X orientation angle, node 1, rad
        104   -2.098E-02, -9.874E-01, -1.570E-01         F               0         Hub Y orientation angle, node 1, rad
        105   -1.931E-01,  1.581E-01, -9.684E-01         F               0         Hub Z orientation angle, node 1, rad
        106    6.941E-01                                 F               0         Hub X rotation velocity, node 1, rad/s
        107    7.097E-03                                 F               0         Hub Y rotation velocity, node 1, rad/s
        108   -1.372E-01                                 F               0         Hub Z rotation velocity, node 1, rad/s
        109    9.812E-01,  3.929E-02, -1.892E-01         F               0         Blade root 1 X orientation angle, node 1, rad
        110    8.132E-03, -9.866E-01, -1.627E-01         F               0         Blade root 1 Y orientation angle, node 1, rad
        111   -1.931E-01,  1.581E-01, -9.684E-01         F               0         Blade root 1 Z orientation angle, node 1, rad
        112    9.852E-01, -8.710E-03, -1.713E-01         F               0         Blade root 2 X orientation angle, node 1, rad
        113   -1.275E-01,  6.306E-01, -7.655E-01         F               0         Blade root 2 Y orientation angle, node 1, rad
        114    1.147E-01,  7.760E-01,  6.202E-01         F               0         Blade root 2 Z orientation angle, node 1, rad
        115    9.753E-01, -5.863E-04, -2.211E-01         F               0         Blade root 3 X orientation angle, node 1, rad
        116    2.067E-01,  3.569E-01,  9.110E-01         F               0         Blade root 3 Y orientation angle, node 1, rad
        117    7.837E-02, -9.341E-01,  3.482E-01         F               0         Blade root 3 Z orientation angle, node 1, rad
        118    1.742E+01                                 F               0         Blade 1 X translation displacement, node 1, m
        119   -6.570E+00                                 F               0         Blade 1 Y translation displacement, node 1, m
        120   -1.075E+01                                 F               0         Blade 1 Z translation displacement, node 1, m
        121    1.702E+01                                 F               0         Blade 1 X translation displacement, node 2, m
        122   -6.359E+00                                 F               0         Blade 1 Y translation displacement, node 2, m
        123   -1.337E+01                                 F               0         Blade 1 Z translation displacement, node 2, m
        124    1.162E+01                                 F               0         Blade 1 X translation displacement, node 3, m
        125   -3.489E+00                                 F               0         Blade 1 Y translation displacement, node 3, m
        126   -4.900E+01                                 F               0         Blade 1 Z translation displacement, node 3, m
        127    1.047E+01                                 F               0         Blade 1 X translation displacement, node 4, m
        128   -2.877E+00                                 F               0         Blade 1 Y translation displacement, node 4, m
        129   -5.659E+01                                 F               0         Blade 1 Z translation displacement, node 4, m
        130    9.318E+00                                 F               0         Blade 1 X translation displacement, node 5, m
        131   -2.266E+00                                 F               0         Blade 1 Y translation displacement, node 5, m
        132   -6.418E+01                                 F               0         Blade 1 Z translation displacement, node 5, m
        133    8.167E+00                                 F               0         Blade 1 X translation displacement, node 6, m
        134   -1.654E+00                                 F               0         Blade 1 Y translation displacement, node 6, m
        135   -7.178E+01                                 F               0         Blade 1 Z translation displacement, node 6, m
        136    7.016E+00                                 F               0         Blade 1 X translation displacement, node 7, m
        137   -1.043E+00                                 F               0         Blade 1 Y translation displacement, node 7, m
        138   -7.937E+01                                 F               0         Blade 1 Z translation displacement, node 7, m
        139    5.865E+00                                 F               0         Blade 1 X translation displacement, node 8, m
        140   -4.314E-01                                 F               0         Blade 1 Y translation displacement, node 8, m
        141   -8.696E+01                                 F               0         Blade 1 Z translation displacement, node 8, m
        142    4.714E+00                                 F               0         Blade 1 X translation displacement, node 9, m
        143    1.801E-01                                 F               0         Blade 1 Y translation displacement, node 9, m
        144   -9.455E+01                                 F               0         Blade 1 Z translation displacement, node 9, m
        145    3.563E+00                                 F               0         Blade 1 X translation displacement, node 10, m
        146    7.915E-01                                 F               0         Blade 1 Y translation displacement, node 10, m
        147   -1.021E+02                                 F               0         Blade 1 Z translation displacement, node 10, m
        148    2.412E+00                                 F               0         Blade 1 X translation displacement, node 11, m
        149    1.403E+00                                 F               0         Blade 1 Y translation displacement, node 11, m
        150   -1.097E+02                                 F               0         Blade 1 Z translation displacement, node 11, m
        151    1.261E+00                                 F               0         Blade 1 X translation displacement, node 12, m
        152    2.015E+00                                 F               0         Blade 1 Y translation displacement, node 12, m
        153   -1.173E+02                                 F               0         Blade 1 Z translation displacement, node 12, m
        154    1.096E-01                                 F               0         Blade 1 X translation displacement, node 13, m
        155    2.626E+00                                 F               0         Blade 1 Y translation displacement, node 13, m
        156   -1.249E+02                                 F               0         Blade 1 Z translation displacement, node 13, m
        157   -1.041E+00                                 F               0         Blade 1 X translation displacement, node 14, m
        158    3.237E+00                                 F               0         Blade 1 Y translation displacement, node 14, m
        159   -1.325E+02                                 F               0         Blade 1 Z translation displacement, node 14, m
        160   -2.193E+00                                 F               0         Blade 1 X translation displacement, node 15, m
        161    3.849E+00                                 F               0         Blade 1 Y translation displacement, node 15, m
        162   -1.401E+02                                 F               0         Blade 1 Z translation displacement, node 15, m
        163   -3.344E+00                                 F               0         Blade 1 X translation displacement, node 16, m
        164    4.461E+00                                 F               0         Blade 1 Y translation displacement, node 16, m
        165   -1.477E+02                                 F               0         Blade 1 Z translation displacement, node 16, m
        166   -4.494E+00                                 F               0         Blade 1 X translation displacement, node 17, m
        167    5.072E+00                                 F               0         Blade 1 Y translation displacement, node 17, m
        168   -1.553E+02                                 F               0         Blade 1 Z translation displacement, node 17, m
        169   -5.645E+00                                 F               0         Blade 1 X translation displacement, node 18, m
        170    5.683E+00                                 F               0         Blade 1 Y translation displacement, node 18, m
        171   -1.629E+02                                 F               0         Blade 1 Z translation displacement, node 18, m
        172   -6.797E+00                                 F               0         Blade 1 X translation displacement, node 19, m
        173    6.295E+00                                 F               0         Blade 1 Y translation displacement, node 19, m
        174   -1.705E+02                                 F               0         Blade 1 Z translation displacement, node 19, m
        175   -7.948E+00                                 F               0         Blade 1 X translation displacement, node 20, m
        176    6.906E+00                                 F               0         Blade 1 Y translation displacement, node 20, m
        177   -1.781E+02                                 F               0         Blade 1 Z translation displacement, node 20, m
        178   -9.099E+00                                 F               0         Blade 1 X translation displacement, node 21, m
        179    7.518E+00                                 F               0         Blade 1 Y translation displacement, node 21, m
        180   -1.857E+02                                 F               0         Blade 1 Z translation displacement, node 21, m
        181   -1.025E+01                                 F               0         Blade 1 X translation displacement, node 22, m
        182    8.129E+00                                 F               0         Blade 1 Y translation displacement, node 22, m
        183   -1.932E+02                                 F               0         Blade 1 Z translation displacement, node 22, m
        184   -1.140E+01                                 F               0         Blade 1 X translation displacement, node 23, m
        185    8.741E+00                                 F               0         Blade 1 Y translation displacement, node 23, m
        186   -2.008E+02                                 F               0         Blade 1 Z translation displacement, node 23, m
        187   -1.255E+01                                 F               0         Blade 1 X translation displacement, node 24, m
        188    9.352E+00                                 F               0         Blade 1 Y translation displacement, node 24, m
        189   -2.084E+02                                 F               0         Blade 1 Z translation displacement, node 24, m
        190   -1.370E+01                                 F               0         Blade 1 X translation displacement, node 25, m
        191    9.964E+00                                 F               0         Blade 1 Y translation displacement, node 25, m
        192   -2.160E+02                                 F               0         Blade 1 Z translation displacement, node 25, m
        193   -1.485E+01                                 F               0         Blade 1 X translation displacement, node 26, m
        194    1.058E+01                                 F               0         Blade 1 Y translation displacement, node 26, m
        195   -2.236E+02                                 F               0         Blade 1 Z translation displacement, node 26, m
        196   -1.600E+01                                 F               0         Blade 1 X translation displacement, node 27, m
        197    1.119E+01                                 F               0         Blade 1 Y translation displacement, node 27, m
        198   -2.312E+02                                 F               0         Blade 1 Z translation displacement, node 27, m
        199   -1.698E+01                                 F               0         Blade 1 X translation displacement, node 28, m
        200    1.171E+01                                 F               0         Blade 1 Y translation displacement, node 28, m
        201   -2.376E+02                                 F               0         Blade 1 Z translation displacement, node 28, m
        202    8.695E-01,  4.849E-01, -9.419E-02         F               0         Blade 1 X orientation angle, node 1, rad
        203    4.547E-01, -8.602E-01, -2.311E-01         F               0         Blade 1 Y orientation angle, node 1, rad
        204   -1.931E-01,  1.581E-01, -9.684E-01         F               0         Blade 1 Z orientation angle, node 1, rad
        205    8.695E-01,  4.849E-01, -9.419E-02         F               0         Blade 1 X orientation angle, node 2, rad
        206    4.547E-01, -8.602E-01, -2.311E-01         F               0         Blade 1 Y orientation angle, node 2, rad
        207   -1.931E-01,  1.581E-01, -9.684E-01         F               0         Blade 1 Z orientation angle, node 2, rad
        208    9.525E-01,  2.672E-01, -1.463E-01         F               0         Blade 1 X orientation angle, node 3, rad
        209    2.356E-01, -9.506E-01, -2.022E-01         F               0         Blade 1 Y orientation angle, node 3, rad
        210   -1.931E-01,  1.581E-01, -9.684E-01         F               0         Blade 1 Z orientation angle, node 3, rad
        211    9.616E-01,  2.268E-01, -1.547E-01         F               0         Blade 1 X orientation angle, node 4, rad
        212    1.952E-01, -9.610E-01, -1.958E-01         F               0         Blade 1 Y orientation angle, node 4, rad
        213   -1.931E-01,  1.581E-01, -9.684E-01         F               0         Blade 1 Z orientation angle, node 4, rad
        214    9.675E-01,  1.948E-01, -1.611E-01         F               0         Blade 1 X orientation angle, node 5, rad
        215    1.632E-01, -9.680E-01, -1.906E-01         F               0         Blade 1 Y orientation angle, node 5, rad
        216   -1.931E-01,  1.581E-01, -9.684E-01         F               0         Blade 1 Z orientation angle, node 5, rad
        217    9.715E-01,  1.691E-01, -1.661E-01         F               0         Blade 1 X orientation angle, node 6, rad
        218    1.375E-01, -9.728E-01, -1.862E-01         F               0         Blade 1 Y orientation angle, node 6, rad
        219   -1.931E-01,  1.581E-01, -9.684E-01         F               0         Blade 1 Z orientation angle, node 6, rad
        220    9.743E-01,  1.478E-01, -1.701E-01         F               0         Blade 1 X orientation angle, node 7, rad
        221    1.163E-01, -9.763E-01, -1.826E-01         F               0         Blade 1 Y orientation angle, node 7, rad
        222   -1.931E-01,  1.581E-01, -9.684E-01         F               0         Blade 1 Z orientation angle, node 7, rad
        223    9.762E-01,  1.301E-01, -1.734E-01         F               0         Blade 1 X orientation angle, node 8, rad
        224    9.856E-02, -9.788E-01, -1.795E-01         F               0         Blade 1 Y orientation angle, node 8, rad
        225   -1.931E-01,  1.581E-01, -9.684E-01         F               0         Blade 1 Z orientation angle, node 8, rad
        226    9.776E-01,  1.150E-01, -1.761E-01         F               0         Blade 1 X orientation angle, node 9, rad
        227    8.355E-02, -9.807E-01, -1.768E-01         F               0         Blade 1 Y orientation angle, node 9, rad