
Linearized model: Predictions were generated on 12-Jan-2024 at 08:43:17 using OpenFAST, compiled as a 64-bit application using single precision at commit v3.5.1
 linked with  NWTC Subroutine Library; ElastoDyn; InflowWind; AeroDyn; ServoDyn; HydroDyn; MAP++ (<1.20.10>, <Oct-20-2023>)

Description from the FAST input file: CCT-9 Campign 4 model. Input files to be run with OpenFAST 3.5.0. GitHub branch from Lu Wang (https://github.com/luwang00/openfast/tree/dev) compiled on March 7, 2023.

Simulation information:
   Simulation time:                   504.9500 s
   Rotor Speed:                         0.7074 rad/s
   Azimuth:                             0.6359 rad
   Wind Speed:                          8.0000 m/s
   Number of continuous states:         0
   Number of discrete states:           0
   Number of constraint states:         0
   Number of inputs:                  303
   Number of outputs:                   1
   Jacobians included in this file?    No

Order of inputs:
     Column   Operating Point                     Rotating Frame? Derivative Order Description
   ---------- ---------------                     --------------- ---------------- -----------
          1   -1.080E+01                                 F               0         X-component position of node 1 (hub), m
          2    0.000E+00                                 F               0         Y-component position of node 1 (hub), m
          3    1.497E+02                                 F               0         Z-component position of node 1 (hub), m
          4    9.148E+00                                 F               0         X-component position of node 2 (blade 1, node 1), m
          5   -1.111E+01                                 F               0         Y-component position of node 2 (blade 1, node 1), m
          6    1.541E+02                                 F               0         Z-component position of node 2 (blade 1, node 1), m
          7    9.357E+00                                 F               0         X-component position of node 3 (blade 1, node 2), m
          8   -1.195E+01                                 F               0         Y-component position of node 3 (blade 1, node 2), m
          9    1.551E+02                                 F               0         Z-component position of node 3 (blade 1, node 2), m
         10    1.220E+01                                 F               0         X-component position of node 4 (blade 1, node 3), m
         11   -2.341E+01                                 F               0         Y-component position of node 4 (blade 1, node 3), m
         12    1.689E+02                                 F               0         Z-component position of node 4 (blade 1, node 3), m
         13    1.280E+01                                 F               0         X-component position of node 5 (blade 1, node 4), m
         14   -2.585E+01                                 F               0         Y-component position of node 5 (blade 1, node 4), m
         15    1.718E+02                                 F               0         Z-component position of node 5 (blade 1, node 4), m
         16    1.341E+01                                 F               0         X-component position of node 6 (blade 1, node 5), m
         17   -2.830E+01                                 F               0         Y-component position of node 6 (blade 1, node 5), m
         18    1.747E+02                                 F               0         Z-component position of node 6 (blade 1, node 5), m
         19    1.402E+01                                 F               0         X-component position of node 7 (blade 1, node 6), m
         20   -3.074E+01                                 F               0         Y-component position of node 7 (blade 1, node 6), m
         21    1.777E+02                                 F               0         Z-component position of node 7 (blade 1, node 6), m
         22    1.462E+01                                 F               0         X-component position of node 8 (blade 1, node 7), m
         23   -3.318E+01                                 F               0         Y-component position of node 8 (blade 1, node 7), m
         24    1.806E+02                                 F               0         Z-component position of node 8 (blade 1, node 7), m
         25    1.523E+01                                 F               0         X-component position of node 9 (blade 1, node 8), m
         26   -3.562E+01                                 F               0         Y-component position of node 9 (blade 1, node 8), m
         27    1.835E+02                                 F               0         Z-component position of node 9 (blade 1, node 8), m
         28    1.583E+01                                 F               0         X-component position of node 10 (blade 1, node 9), m
         29   -3.806E+01                                 F               0         Y-component position of node 10 (blade 1, node 9), m
         30    1.865E+02                                 F               0         Z-component position of node 10 (blade 1, node 9), m
         31    1.644E+01                                 F               0         X-component position of node 11 (blade 1, node 10), m
         32   -4.051E+01                                 F               0         Y-component position of node 11 (blade 1, node 10), m
         33    1.894E+02                                 F               0         Z-component position of node 11 (blade 1, node 10), m
         34    1.704E+01                                 F               0         X-component position of node 12 (blade 1, node 11), m
         35   -4.295E+01                                 F               0         Y-component position of node 12 (blade 1, node 11), m
         36    1.924E+02                                 F               0         Z-component position of node 12 (blade 1, node 11), m
         37    1.765E+01                                 F               0         X-component position of node 13 (blade 1, node 12), m
         38   -4.539E+01                                 F               0         Y-component position of node 13 (blade 1, node 12), m
         39    1.953E+02                                 F               0         Z-component position of node 13 (blade 1, node 12), m
         40    1.825E+01                                 F               0         X-component position of node 14 (blade 1, node 13), m
         41   -4.783E+01                                 F               0         Y-component position of node 14 (blade 1, node 13), m
         42    1.982E+02                                 F               0         Z-component position of node 14 (blade 1, node 13), m
         43    1.886E+01                                 F               0         X-component position of node 15 (blade 1, node 14), m
         44   -5.027E+01                                 F               0         Y-component position of node 15 (blade 1, node 14), m
         45    2.012E+02                                 F               0         Z-component position of node 15 (blade 1, node 14), m
         46    1.947E+01                                 F               0         X-component position of node 16 (blade 1, node 15), m
         47   -5.272E+01                                 F               0         Y-component position of node 16 (blade 1, node 15), m
         48    2.041E+02                                 F               0         Z-component position of node 16 (blade 1, node 15), m
         49    2.007E+01                                 F               0         X-component position of node 17 (blade 1, node 16), m
         50   -5.516E+01                                 F               0         Y-component position of node 17 (blade 1, node 16), m
         51    2.070E+02                                 F               0         Z-component position of node 17 (blade 1, node 16), m
         52    2.068E+01                                 F               0         X-component position of node 18 (blade 1, node 17), m
         53   -5.760E+01                                 F               0         Y-component position of node 18 (blade 1, node 17), m
         54    2.100E+02                                 F               0         Z-component position of node 18 (blade 1, node 17), m
         55    2.128E+01                                 F               0         X-component position of node 19 (blade 1, node 18), m
         56   -6.004E+01                                 F               0         Y-component position of node 19 (blade 1, node 18), m
         57    2.129E+02                                 F               0         Z-component position of node 19 (blade 1, node 18), m
         58    2.189E+01                                 F               0         X-component position of node 20 (blade 1, node 19), m
         59   -6.248E+01                                 F               0         Y-component position of node 20 (blade 1, node 19), m
         60    2.159E+02                                 F               0         Z-component position of node 20 (blade 1, node 19), m
         61    2.249E+01                                 F               0         X-component position of node 21 (blade 1, node 20), m
         62   -6.493E+01                                 F               0         Y-component position of node 21 (blade 1, node 20), m
         63    2.188E+02                                 F               0         Z-component position of node 21 (blade 1, node 20), m
         64    2.310E+01                                 F               0         X-component position of node 22 (blade 1, node 21), m
         65   -6.737E+01                                 F               0         Y-component position of node 22 (blade 1, node 21), m
         66    2.217E+02                                 F               0         Z-component position of node 22 (blade 1, node 21), m
         67    2.370E+01                                 F               0         X-component position of node 23 (blade 1, node 22), m
         68   -6.981E+01                                 F               0         Y-component position of node 23 (blade 1, node 22), m
         69    2.247E+02                                 F               0         Z-component position of node 23 (blade 1, node 22), m
         70    2.431E+01                                 F               0         X-component position of node 24 (blade 1, node 23), m
         71   -7.225E+01                                 F               0         Y-component position of node 24 (blade 1, node 23), m
         72    2.276E+02                                 F               0         Z-component position of node 24 (blade 1, node 23), m
         73    2.492E+01                                 F               0         X-component position of node 25 (blade 1, node 24), m
         74   -7.469E+01                                 F               0         Y-component position of node 25 (blade 1, node 24), m
         75    2.305E+02                                 F               0         Z-component position of node 25 (blade 1, node 24), m
         76    2.552E+01                                 F               0         X-component position of node 26 (blade 1, node 25), m
         77   -7.714E+01                                 F               0         Y-component position of node 26 (blade 1, node 25), m
         78    2.335E+02                                 F               0         Z-component position of node 26 (blade 1, node 25), m
         79    2.613E+01                                 F               0         X-component position of node 27 (blade 1, node 26), m
         80   -7.958E+01                                 F               0         Y-component position of node 27 (blade 1, node 26), m
         81    2.364E+02                                 F               0         Z-component position of node 27 (blade 1, node 26), m
         82    2.673E+01                                 F               0         X-component position of node 28 (blade 1, node 27), m
         83   -8.202E+01                                 F               0         Y-component position of node 28 (blade 1, node 27), m
         84    2.394E+02                                 F               0         Z-component position of node 28 (blade 1, node 27), m
         85    2.725E+01                                 F               0         X-component position of node 29 (blade 1, node 28), m
         86   -8.409E+01                                 F               0         Y-component position of node 29 (blade 1, node 28), m
         87    2.418E+02                                 F               0         Z-component position of node 29 (blade 1, node 28), m
         88    7.296E+00                                 F               0         X-component position of node 30 (blade 2, node 1), m
         89   -9.582E+00                                 F               0         Y-component position of node 30 (blade 2, node 1), m
         90    1.448E+02                                 F               0         Z-component position of node 30 (blade 2, node 1), m
         91    7.059E+00                                 F               0         X-component position of node 31 (blade 2, node 2), m
         92   -1.006E+01                                 F               0         Y-component position of node 31 (blade 2, node 2), m
         93    1.435E+02                                 F               0         Z-component position of node 31 (blade 2, node 2), m
         94    3.832E+00                                 F               0         X-component position of node 32 (blade 2, node 3), m
         95   -1.652E+01                                 F               0         Y-component position of node 32 (blade 2, node 3), m
         96    1.269E+02                                 F               0         Z-component position of node 32 (blade 2, node 3), m
         97    3.145E+00                                 F               0         X-component position of node 33 (blade 2, node 4), m
         98   -1.789E+01                                 F               0         Y-component position of node 33 (blade 2, node 4), m
         99    1.233E+02                                 F               0         Z-component position of node 33 (blade 2, node 4), m
        100    2.457E+00                                 F               0         X-component position of node 34 (blade 2, node 5), m
        101   -1.927E+01                                 F               0         Y-component position of node 34 (blade 2, node 5), m
        102    1.198E+02                                 F               0         Z-component position of node 34 (blade 2, node 5), m
        103    1.770E+00                                 F               0         X-component position of node 35 (blade 2, node 6), m
        104   -2.064E+01                                 F               0         Y-component position of node 35 (blade 2, node 6), m
        105    1.162E+02                                 F               0         Z-component position of node 35 (blade 2, node 6), m
        106    1.083E+00                                 F               0         X-component position of node 36 (blade 2, node 7), m
        107   -2.202E+01                                 F               0         Y-component position of node 36 (blade 2, node 7), m
        108    1.127E+02                                 F               0         Z-component position of node 36 (blade 2, node 7), m
        109    3.952E-01                                 F               0         X-component position of node 37 (blade 2, node 8), m
        110   -2.340E+01                                 F               0         Y-component position of node 37 (blade 2, node 8), m
        111    1.091E+02                                 F               0         Z-component position of node 37 (blade 2, node 8), m
        112   -2.922E-01                                 F               0         X-component position of node 38 (blade 2, node 9), m
        113   -2.477E+01                                 F               0         Y-component position of node 38 (blade 2, node 9), m
        114    1.056E+02                                 F               0         Z-component position of node 38 (blade 2, node 9), m
        115   -9.796E-01                                 F               0         X-component position of node 39 (blade 2, node 10), m
        116   -2.615E+01                                 F               0         Y-component position of node 39 (blade 2, node 10), m
        117    1.020E+02                                 F               0         Z-component position of node 39 (blade 2, node 10), m
        118   -1.667E+00                                 F               0         X-component position of node 40 (blade 2, node 11), m
        119   -2.753E+01                                 F               0         Y-component position of node 40 (blade 2, node 11), m
        120    9.850E+01                                 F               0         Z-component position of node 40 (blade 2, node 11), m
        121   -2.354E+00                                 F               0         X-component position of node 41 (blade 2, node 12), m
        122   -2.890E+01                                 F               0         Y-component position of node 41 (blade 2, node 12), m
        123    9.495E+01                                 F               0         Z-component position of node 41 (blade 2, node 12), m
        124   -3.042E+00                                 F               0         X-component position of node 42 (blade 2, node 13), m
        125   -3.028E+01                                 F               0         Y-component position of node 42 (blade 2, node 13), m
        126    9.140E+01                                 F               0         Z-component position of node 42 (blade 2, node 13), m
        127   -3.729E+00                                 F               0         X-component position of node 43 (blade 2, node 14), m
        128   -3.165E+01                                 F               0         Y-component position of node 43 (blade 2, node 14), m
        129    8.785E+01                                 F               0         Z-component position of node 43 (blade 2, node 14), m
        130   -4.417E+00                                 F               0         X-component position of node 44 (blade 2, node 15), m
        131   -3.303E+01                                 F               0         Y-component position of node 44 (blade 2, node 15), m
        132    8.430E+01                                 F               0         Z-component position of node 44 (blade 2, node 15), m
        133   -5.104E+00                                 F               0         X-component position of node 45 (blade 2, node 16), m
        134   -3.441E+01                                 F               0         Y-component position of node 45 (blade 2, node 16), m
        135    8.075E+01                                 F               0         Z-component position of node 45 (blade 2, node 16), m
        136   -5.792E+00                                 F               0         X-component position of node 46 (blade 2, node 17), m
        137   -3.578E+01                                 F               0         Y-component position of node 46 (blade 2, node 17), m
        138    7.720E+01                                 F               0         Z-component position of node 46 (blade 2, node 17), m
        139   -6.479E+00                                 F               0         X-component position of node 47 (blade 2, node 18), m
        140   -3.716E+01                                 F               0         Y-component position of node 47 (blade 2, node 18), m
        141    7.366E+01                                 F               0         Z-component position of node 47 (blade 2, node 18), m
        142   -7.166E+00                                 F               0         X-component position of node 48 (blade 2, node 19), m
        143   -3.854E+01                                 F               0         Y-component position of node 48 (blade 2, node 19), m
        144    7.011E+01                                 F               0         Z-component position of node 48 (blade 2, node 19), m
        145   -7.854E+00                                 F               0         X-component position of node 49 (blade 2, node 20), m
        146   -3.991E+01                                 F               0         Y-component position of node 49 (blade 2, node 20), m
        147    6.656E+01                                 F               0         Z-component position of node 49 (blade 2, node 20), m
        148   -8.541E+00                                 F               0         X-component position of node 50 (blade 2, node 21), m
        149   -4.129E+01                                 F               0         Y-component position of node 50 (blade 2, node 21), m
        150    6.301E+01                                 F               0         Z-component position of node 50 (blade 2, node 21), m
        151   -9.229E+00                                 F               0         X-component position of node 51 (blade 2, node 22), m
        152   -4.267E+01                                 F               0         Y-component position of node 51 (blade 2, node 22), m
        153    5.946E+01                                 F               0         Z-component position of node 51 (blade 2, node 22), m
        154   -9.916E+00                                 F               0         X-component position of node 52 (blade 2, node 23), m
        155   -4.404E+01                                 F               0         Y-component position of node 52 (blade 2, node 23), m
        156    5.591E+01                                 F               0         Z-component position of node 52 (blade 2, node 23), m
        157   -1.060E+01                                 F               0         X-component position of node 53 (blade 2, node 24), m
        158   -4.542E+01                                 F               0         Y-component position of node 53 (blade 2, node 24), m
        159    5.236E+01                                 F               0         Z-component position of node 53 (blade 2, node 24), m
        160   -1.129E+01                                 F               0         X-component position of node 54 (blade 2, node 25), m
        161   -4.679E+01                                 F               0         Y-component position of node 54 (blade 2, node 25), m
        162    4.882E+01                                 F               0         Z-component position of node 54 (blade 2, node 25), m
        163   -1.198E+01                                 F               0         X-component position of node 55 (blade 2, node 26), m
        164   -4.817E+01                                 F               0         Y-component position of node 55 (blade 2, node 26), m
        165    4.527E+01                                 F               0         Z-component position of node 55 (blade 2, node 26), m
        166   -1.267E+01                                 F               0         X-component position of node 56 (blade 2, node 27), m
        167   -4.955E+01                                 F               0         Y-component position of node 56 (blade 2, node 27), m
        168    4.172E+01                                 F               0         Z-component position of node 56 (blade 2, node 27), m
        169   -1.325E+01                                 F               0         X-component position of node 57 (blade 2, node 28), m
        170   -5.071E+01                                 F               0         Y-component position of node 57 (blade 2, node 28), m
        171    3.871E+01                                 F               0         Z-component position of node 57 (blade 2, node 28), m
        172    8.398E+00                                 F               0         X-component position of node 58 (blade 3, node 1), m
        173   -2.141E+00                                 F               0         Y-component position of node 58 (blade 3, node 1), m
        174    1.507E+02                                 F               0         Z-component position of node 58 (blade 3, node 1), m
        175    8.426E+00                                 F               0         X-component position of node 59 (blade 3, node 2), m
        176   -8.236E-01                                 F               0         Y-component position of node 59 (blade 3, node 2), m
        177    1.509E+02                                 F               0         Z-component position of node 59 (blade 3, node 2), m
        178    8.810E+00                                 F               0         X-component position of node 60 (blade 3, node 3), m
        179    1.710E+01                                 F               0         Y-component position of node 60 (blade 3, node 3), m
        180    1.538E+02                                 F               0         Z-component position of node 60 (blade 3, node 3), m
        181    8.892E+00                                 F               0         X-component position of node 61 (blade 3, node 4), m
        182    2.091E+01                                 F               0         Y-component position of node 61 (blade 3, node 4), m
        183    1.544E+02                                 F               0         Z-component position of node 61 (blade 3, node 4), m
        184    8.974E+00                                 F               0         X-component position of node 62 (blade 3, node 5), m
        185    2.473E+01                                 F               0         Y-component position of node 62 (blade 3, node 5), m
        186    1.550E+02                                 F               0         Z-component position of node 62 (blade 3, node 5), m
        187    9.056E+00                                 F               0         X-component position of node 63 (blade 3, node 6), m
        188    2.855E+01                                 F               0         Y-component position of node 63 (blade 3, node 6), m
        189    1.556E+02                                 F               0         Z-component position of node 63 (blade 3, node 6), m
        190    9.138E+00                                 F               0         X-component position of node 64 (blade 3, node 7), m
        191    3.237E+01                                 F               0         Y-component position of node 64 (blade 3, node 7), m
        192    1.562E+02                                 F               0         Z-component position of node 64 (blade 3, node 7), m
        193    9.220E+00                                 F               0         X-component position of node 65 (blade 3, node 8), m
        194    3.619E+01                                 F               0         Y-component position of node 65 (blade 3, node 8), m
        195    1.569E+02                                 F               0         Z-component position of node 65 (blade 3, node 8), m
        196    9.302E+00                                 F               0         X-component position of node 66 (blade 3, node 9), m
        197    4.001E+01                                 F               0         Y-component position of node 66 (blade 3, node 9), m
        198    1.575E+02                                 F               0         Z-component position of node 66 (blade 3, node 9), m
        199    9.383E+00                                 F               0         X-component position of node 67 (blade 3, node 10), m
        200    4.382E+01                                 F               0         Y-component position of node 67 (blade 3, node 10), m
        201    1.581E+02                                 F               0         Z-component position of node 67 (blade 3, node 10), m
        202    9.465E+00                                 F               0         X-component position of node 68 (blade 3, node 11), m
        203    4.764E+01                                 F               0         Y-component position of node 68 (blade 3, node 11), m
        204    1.587E+02                                 F               0         Z-component position of node 68 (blade 3, node 11), m
        205    9.547E+00                                 F               0         X-component position of node 69 (blade 3, node 12), m
        206    5.146E+01                                 F               0         Y-component position of node 69 (blade 3, node 12), m
        207    1.593E+02                                 F               0         Z-component position of node 69 (blade 3, node 12), m
        208    9.629E+00                                 F               0         X-component position of node 70 (blade 3, node 13), m
        209    5.528E+01                                 F               0         Y-component position of node 70 (blade 3, node 13), m
        210    1.599E+02                                 F               0         Z-component position of node 70 (blade 3, node 13), m
        211    9.711E+00                                 F               0         X-component position of node 71 (blade 3, node 14), m