
Linearized model: Predictions were generated on 12-Jan-2024 at 08:43:17 using OpenFAST, compiled as a 64-bit application using single precision at commit v3.5.1
 linked with  NWTC Subroutine Library; ElastoDyn; InflowWind; AeroDyn; ServoDyn; HydroDyn; MAP++ (<1.20.10>, <Oct-20-2023>)

Description from the FAST input file: CCT-9 Campign 4 model. Input files to be run with OpenFAST 3.5.0. GitHub branch from Lu Wang (https://github.com/luwang00/openfast/tree/dev) compiled on March 7, 2023.

Simulation information:
   Simulation time:                   501.0000 s
   Rotor Speed:                         0.7076 rad/s
   Azimuth:                             4.1243 rad
   Wind Speed:                          8.0000 m/s
   Number of continuous states:        22
   Number of discrete states:           0
   Number of constraint states:         0
   Number of inputs:                 1890
   Number of outputs:                  38
   Jacobians included in this file?    No

Order of continuous states:
   Row/Column Operating Point                     Rotating Frame? Derivative Order Description
   ---------- ---------------                     --------------- ---------------- -----------
          1    5.779E+00                                 F               2         Platform horizontal surge translation DOF (internal DOF index = DOF_Sg), m
          2   -4.771E-01                                 F               2         Platform horizontal sway translation DOF (internal DOF index = DOF_Sw), m
          3   -1.159E-01                                 F               2         Platform vertical heave translation DOF (internal DOF index = DOF_Hv), m
          4    4.708E-02                                 F               2         Platform roll tilt rotation DOF (internal DOF index = DOF_R), rad
          5    8.562E-02                                 F               2         Platform pitch tilt rotation DOF (internal DOF index = DOF_P), rad
          6    2.587E-03                                 F               2         Platform yaw rotation DOF (internal DOF index = DOF_Y), rad
          7    4.675E-01                                 F               2         1st tower fore-aft bending mode DOF (internal DOF index = DOF_TFA1), m
          8    1.868E-01                                 F               2         1st tower side-to-side bending mode DOF (internal DOF index = DOF_TSS1), m
          9    1.464E-03                                 F               2         2nd tower fore-aft bending mode DOF (internal DOF index = DOF_TFA2), m
         10    8.145E-05                                 F               2         2nd tower side-to-side bending mode DOF (internal DOF index = DOF_TSS2), m
         11    2.554E+00                                 F               2         Variable speed generator DOF (internal DOF index = DOF_GeAz), rad
         12   -4.198E-03                                 F               2         First time derivative of Platform horizontal surge translation DOF (internal DOF index = DOF_Sg), m/s
         13    2.034E-03                                 F               2         First time derivative of Platform horizontal sway translation DOF (internal DOF index = DOF_Sw), m/s
         14   -5.079E-04                                 F               2         First time derivative of Platform vertical heave translation DOF (internal DOF index = DOF_Hv), m/s
         15   -7.424E-05                                 F               2         First time derivative of Platform roll tilt rotation DOF (internal DOF index = DOF_R), rad/s
         16   -3.415E-06                                 F               2         First time derivative of Platform pitch tilt rotation DOF (internal DOF index = DOF_P), rad/s
         17    4.182E-05                                 F               2         First time derivative of Platform yaw rotation DOF (internal DOF index = DOF_Y), rad/s
         18   -4.627E-04                                 F               2         First time derivative of 1st tower fore-aft bending mode DOF (internal DOF index = DOF_TFA1), m/s
         19   -9.290E-04                                 F               2         First time derivative of 1st tower side-to-side bending mode DOF (internal DOF index = DOF_TSS1), m/s
         20    1.998E-06                                 F               2         First time derivative of 2nd tower fore-aft bending mode DOF (internal DOF index = DOF_TFA2), m/s
         21    4.865E-07                                 F               2         First time derivative of 2nd tower side-to-side bending mode DOF (internal DOF index = DOF_TSS2), m/s
         22    7.076E-01                                 F               2         First time derivative of Variable speed generator DOF (internal DOF index = DOF_GeAz), rad/s

Order of continuous state derivatives:
   Row/Column Operating Point                     Rotating Frame? Derivative Order Description
   ---------- ---------------                     --------------- ---------------- -----------
          1   -4.198E-03                                 F               2         First time derivative of Platform horizontal surge translation DOF (internal DOF index = DOF_Sg), m/s
          2    2.034E-03                                 F               2         First time derivative of Platform horizontal sway translation DOF (internal DOF index = DOF_Sw), m/s
          3   -5.079E-04                                 F               2         First time derivative of Platform vertical heave translation DOF (internal DOF index = DOF_Hv), m/s
          4   -7.424E-05                                 F               2         First time derivative of Platform roll tilt rotation DOF (internal DOF index = DOF_R), rad/s
          5   -3.415E-06                                 F               2         First time derivative of Platform pitch tilt rotation DOF (internal DOF index = DOF_P), rad/s
          6    4.182E-05                                 F               2         First time derivative of Platform yaw rotation DOF (internal DOF index = DOF_Y), rad/s
          7   -4.627E-04                                 F               2         First time derivative of 1st tower fore-aft bending mode DOF (internal DOF index = DOF_TFA1), m/s
          8   -9.290E-04                                 F               2         First time derivative of 1st tower side-to-side bending mode DOF (internal DOF index = DOF_TSS1), m/s
          9    1.998E-06                                 F               2         First time derivative of 2nd tower fore-aft bending mode DOF (internal DOF index = DOF_TFA2), m/s
         10    4.865E-07                                 F               2         First time derivative of 2nd tower side-to-side bending mode DOF (internal DOF index = DOF_TSS2), m/s
         11    7.076E-01                                 F               2         First time derivative of Variable speed generator DOF (internal DOF index = DOF_GeAz), rad/s
         12   -2.907E-04                                 F               2         First time derivative of First time derivative of Platform horizontal surge translation DOF (internal DOF index = DOF_Sg), m/s/s
         13   -2.938E-04                                 F               2         First time derivative of First time derivative of Platform horizontal sway translation DOF (internal DOF index = DOF_Sw), m/s/s
         14    7.814E-04                                 F               2         First time derivative of First time derivative of Platform vertical heave translation DOF (internal DOF index = DOF_Hv), m/s/s
         15   -4.982E-05                                 F               2         First time derivative of First time derivative of Platform roll tilt rotation DOF (internal DOF index = DOF_R), rad/s/s
         16    1.095E-06                                 F               2         First time derivative of First time derivative of Platform pitch tilt rotation DOF (internal DOF index = DOF_P), rad/s/s
         17    8.022E-06                                 F               2         First time derivative of First time derivative of Platform yaw rotation DOF (internal DOF index = DOF_Y), rad/s/s
         18   -6.815E-04                                 F               2         First time derivative of First time derivative of 1st tower fore-aft bending mode DOF (internal DOF index = DOF_TFA1), m/s/s
         19   -5.456E-04                                 F               2         First time derivative of First time derivative of 1st tower side-to-side bending mode DOF (internal DOF index = DOF_TSS1), m/s/s
         20   -1.522E-06                                 F               2         First time derivative of First time derivative of 2nd tower fore-aft bending mode DOF (internal DOF index = DOF_TFA2), m/s/s
         21    1.334E-06                                 F               2         First time derivative of First time derivative of 2nd tower side-to-side bending mode DOF (internal DOF index = DOF_TSS2), m/s/s
         22    9.072E-05                                 F               2         First time derivative of First time derivative of Variable speed generator DOF (internal DOF index = DOF_GeAz), rad/s/s

Order of inputs:
     Column   Operating Point                     Rotating Frame? Derivative Order Description
   ---------- ---------------                     --------------- ---------------- -----------
          1    3.882E+01                                 F               0         Blade 1 X force, node 1, N
          2   -1.499E+01                                 F               0         Blade 1 Y force, node 1, N
          3   -3.392E+01                                 F               0         Blade 1 Z force, node 1, N
          4    1.831E+02                                 F               0         Blade 1 X force, node 2, N
          5   -2.929E+01                                 F               0         Blade 1 Y force, node 2, N
          6   -8.935E+01                                 F               0         Blade 1 Z force, node 2, N
          7    2.608E+02                                 F               0         Blade 1 X force, node 3, N
          8   -8.660E+00                                 F               0         Blade 1 Y force, node 3, N
          9   -7.085E+01                                 F               0         Blade 1 Z force, node 3, N
         10    3.581E+02                                 F               0         Blade 1 X force, node 4, N
         11    8.680E+00                                 F               0         Blade 1 Y force, node 4, N
         12   -6.216E+01                                 F               0         Blade 1 Z force, node 4, N
         13    4.554E+02                                 F               0         Blade 1 X force, node 5, N
         14    2.602E+01                                 F               0         Blade 1 Y force, node 5, N
         15   -5.348E+01                                 F               0         Blade 1 Z force, node 5, N
         16    5.527E+02                                 F               0         Blade 1 X force, node 6, N
         17    4.336E+01                                 F               0         Blade 1 Y force, node 6, N
         18   -4.480E+01                                 F               0         Blade 1 Z force, node 6, N
         19    6.500E+02                                 F               0         Blade 1 X force, node 7, N
         20    6.070E+01                                 F               0         Blade 1 Y force, node 7, N
         21   -3.612E+01                                 F               0         Blade 1 Z force, node 7, N
         22    7.473E+02                                 F               0         Blade 1 X force, node 8, N
         23    7.804E+01                                 F               0         Blade 1 Y force, node 8, N
         24   -2.743E+01                                 F               0         Blade 1 Z force, node 8, N
         25    8.445E+02                                 F               0         Blade 1 X force, node 9, N
         26    9.538E+01                                 F               0         Blade 1 Y force, node 9, N
         27   -1.875E+01                                 F               0         Blade 1 Z force, node 9, N
         28    9.418E+02                                 F               0         Blade 1 X force, node 10, N
         29    1.127E+02                                 F               0         Blade 1 Y force, node 10, N
         30   -1.007E+01                                 F               0         Blade 1 Z force, node 10, N
         31    1.039E+03                                 F               0         Blade 1 X force, node 11, N
         32    1.301E+02                                 F               0         Blade 1 Y force, node 11, N
         33   -1.387E+00                                 F               0         Blade 1 Z force, node 11, N
         34    1.136E+03                                 F               0         Blade 1 X force, node 12, N
         35    1.474E+02                                 F               0         Blade 1 Y force, node 12, N
         36    7.296E+00                                 F               0         Blade 1 Z force, node 12, N
         37    1.234E+03                                 F               0         Blade 1 X force, node 13, N
         38    1.647E+02                                 F               0         Blade 1 Y force, node 13, N
         39    1.598E+01                                 F               0         Blade 1 Z force, node 13, N
         40    1.331E+03                                 F               0         Blade 1 X force, node 14, N
         41    1.821E+02                                 F               0         Blade 1 Y force, node 14, N
         42    2.466E+01                                 F               0         Blade 1 Z force, node 14, N
         43    1.428E+03                                 F               0         Blade 1 X force, node 15, N
         44    1.994E+02                                 F               0         Blade 1 Y force, node 15, N
         45    3.334E+01                                 F               0         Blade 1 Z force, node 15, N
         46    1.526E+03                                 F               0         Blade 1 X force, node 16, N
         47    2.168E+02                                 F               0         Blade 1 Y force, node 16, N
         48    4.203E+01                                 F               0         Blade 1 Z force, node 16, N
         49    1.882E+03                                 F               0         Blade 1 X force, node 17, N
         50    2.704E+02                                 F               0         Blade 1 Y force, node 17, N
         51    5.705E+01                                 F               0         Blade 1 Z force, node 17, N
         52    1.439E+03                                 F               0         Blade 1 X force, node 18, N
         53    2.000E+02                                 F               0         Blade 1 Y force, node 18, N
         54    3.206E+01                                 F               0         Blade 1 Z force, node 18, N
         55    1.766E+03                                 F               0         Blade 1 X force, node 19, N
         56    2.345E+02                                 F               0         Blade 1 Y force, node 19, N
         57    2.059E+01                                 F               0         Blade 1 Z force, node 19, N
         58    1.507E+03                                 F               0         Blade 1 X force, node 20, N
         59    1.914E+02                                 F               0         Blade 1 Y force, node 20, N
         60    2.790E+00                                 F               0         Blade 1 Z force, node 20, N
         61    2.227E+03                                 F               0         Blade 1 X force, node 21, N
         62    2.687E+02                                 F               0         Blade 1 Y force, node 21, N
         63   -2.008E+01                                 F               0         Blade 1 Z force, node 21, N
         64    1.967E+03                                 F               0         Blade 1 X force, node 22, N
         65    2.255E+02                                 F               0         Blade 1 Y force, node 22, N
         66   -3.796E+01                                 F               0         Blade 1 Z force, node 22, N
         67    2.021E+03                                 F               0         Blade 1 X force, node 23, N
         68    2.211E+02                                 F               0         Blade 1 Y force, node 23, N
         69   -5.712E+01                                 F               0         Blade 1 Z force, node 23, N
         70    2.112E+03                                 F               0         Blade 1 X force, node 24, N
         71    2.206E+02                                 F               0         Blade 1 Y force, node 24, N
         72   -7.751E+01                                 F               0         Blade 1 Z force, node 24, N
         73    2.166E+03                                 F               0         Blade 1 X force, node 25, N
         74    2.161E+02                                 F               0         Blade 1 Y force, node 25, N
         75   -9.664E+01                                 F               0         Blade 1 Z force, node 25, N
         76    2.231E+03                                 F               0         Blade 1 X force, node 26, N
         77    2.129E+02                                 F               0         Blade 1 Y force, node 26, N
         78   -1.162E+02                                 F               0         Blade 1 Z force, node 26, N
         79    2.675E+03                                 F               0         Blade 1 X force, node 27, N
         80    2.436E+02                                 F               0         Blade 1 Y force, node 27, N
         81   -1.592E+02                                 F               0         Blade 1 Z force, node 27, N
         82    1.984E+03                                 F               0         Blade 1 X force, node 28, N
         83    1.727E+02                                 F               0         Blade 1 Y force, node 28, N
         84   -1.318E+02                                 F               0         Blade 1 Z force, node 28, N
         85    2.428E+03                                 F               0         Blade 1 X force, node 29, N
         86    2.034E+02                                 F               0         Blade 1 Y force, node 29, N
         87   -1.748E+02                                 F               0         Blade 1 Z force, node 29, N
         88    2.067E+03                                 F               0         Blade 1 X force, node 30, N
         89    1.668E+02                                 F               0         Blade 1 Y force, node 30, N
         90   -1.597E+02                                 F               0         Blade 1 Z force, node 30, N
         91    2.987E+03                                 F               0         Blade 1 X force, node 31, N
         92    2.307E+02                                 F               0         Blade 1 Y force, node 31, N
         93   -2.484E+02                                 F               0         Blade 1 Z force, node 31, N
         94    2.625E+03                                 F               0         Blade 1 X force, node 32, N
         95    1.940E+02                                 F               0         Blade 1 Y force, node 32, N
         96   -2.333E+02                                 F               0         Blade 1 Z force, node 32, N
         97    2.690E+03                                 F               0         Blade 1 X force, node 33, N
         98    1.908E+02                                 F               0         Blade 1 Y force, node 33, N
         99   -2.527E+02                                 F               0         Blade 1 Z force, node 33, N
        100    2.756E+03                                 F               0         Blade 1 X force, node 34, N
        101    1.877E+02                                 F               0         Blade 1 Y force, node 34, N
        102   -2.722E+02                                 F               0         Blade 1 Z force, node 34, N
        103    2.822E+03                                 F               0         Blade 1 X force, node 35, N
        104    1.846E+02                                 F               0         Blade 1 Y force, node 35, N
        105   -2.917E+02                                 F               0         Blade 1 Z force, node 35, N
        106    2.887E+03                                 F               0         Blade 1 X force, node 36, N
        107    1.814E+02                                 F               0         Blade 1 Y force, node 36, N
        108   -3.111E+02                                 F               0         Blade 1 Z force, node 36, N
        109    3.455E+03                                 F               0         Blade 1 X force, node 37, N
        110    2.080E+02                                 F               0         Blade 1 Y force, node 37, N
        111   -3.876E+02                                 F               0         Blade 1 Z force, node 37, N
        112    2.517E+03                                 F               0         Blade 1 X force, node 38, N
        113    1.454E+02                                 F               0         Blade 1 Y force, node 38, N
        114   -2.928E+02                                 F               0         Blade 1 Z force, node 38, N
        115    3.085E+03                                 F               0         Blade 1 X force, node 39, N
        116    1.721E+02                                 F               0         Blade 1 Y force, node 39, N
        117   -3.694E+02                                 F               0         Blade 1 Z force, node 39, N
        118    2.631E+03                                 F               0         Blade 1 X force, node 40, N
        119    1.418E+02                                 F               0         Blade 1 Y force, node 40, N
        120   -3.236E+02                                 F               0         Blade 1 Z force, node 40, N
        121    3.738E+03                                 F               0         Blade 1 X force, node 41, N
        122    1.933E+02                                 F               0         Blade 1 Y force, node 41, N
        123   -4.735E+02                                 F               0         Blade 1 Z force, node 41, N
        124    3.283E+03                                 F               0         Blade 1 X force, node 42, N
        125    1.629E+02                                 F               0         Blade 1 Y force, node 42, N
        126   -4.276E+02                                 F               0         Blade 1 Z force, node 42, N
        127    3.348E+03                                 F               0         Blade 1 X force, node 43, N
        128    1.598E+02                                 F               0         Blade 1 Y force, node 43, N
        129   -4.470E+02                                 F               0         Blade 1 Z force, node 43, N
        130    3.432E+03                                 F               0         Blade 1 X force, node 44, N
        131    1.575E+02                                 F               0         Blade 1 Y force, node 44, N
        132   -4.688E+02                                 F               0         Blade 1 Z force, node 44, N
        133    3.461E+03                                 F               0         Blade 1 X force, node 45, N
        134    1.528E+02                                 F               0         Blade 1 Y force, node 45, N
        135   -4.832E+02                                 F               0         Blade 1 Z force, node 45, N
        136    3.545E+03                                 F               0         Blade 1 X force, node 46, N
        137    1.505E+02                                 F               0         Blade 1 Y force, node 46, N
        138   -5.050E+02                                 F               0         Blade 1 Z force, node 46, N
        139    4.244E+03                                 F               0         Blade 1 X force, node 47, N
        140    1.729E+02                                 F               0         Blade 1 Y force, node 47, N
        141   -6.171E+02                                 F               0         Blade 1 Z force, node 47, N
        142    3.042E+03                                 F               0         Blade 1 X force, node 48, N
        143    1.190E+02                                 F               0         Blade 1 Y force, node 48, N
        144   -4.509E+02                                 F               0         Blade 1 Z force, node 48, N
        145    3.741E+03                                 F               0         Blade 1 X force, node 49, N
        146    1.413E+02                                 F               0         Blade 1 Y force, node 49, N
        147   -5.630E+02                                 F               0         Blade 1 Z force, node 49, N
        148    3.201E+03                                 F               0         Blade 1 X force, node 50, N
        149    1.167E+02                                 F               0         Blade 1 Y force, node 50, N
        150   -4.888E+02                                 F               0         Blade 1 Z force, node 50, N
        151    4.477E+03                                 F               0         Blade 1 X force, node 51, N
        152    1.567E+02                                 F               0         Blade 1 Y force, node 51, N
        153   -6.950E+02                                 F               0         Blade 1 Z force, node 51, N
        154    3.939E+03                                 F               0         Blade 1 X force, node 52, N
        155    1.322E+02                                 F               0         Blade 1 Y force, node 52, N
        156   -6.210E+02                                 F               0         Blade 1 Z force, node 52, N
        157    4.005E+03                                 F               0         Blade 1 X force, node 53, N
        158    1.292E+02                                 F               0         Blade 1 Y force, node 53, N
        159   -6.404E+02                                 F               0         Blade 1 Z force, node 53, N
        160    4.116E+03                                 F               0         Blade 1 X force, node 54, N
        161    1.276E+02                                 F               0         Blade 1 Y force, node 54, N
        162   -6.671E+02                                 F               0         Blade 1 Z force, node 54, N
        163    4.093E+03                                 F               0         Blade 1 X force, node 55, N
        164    1.218E+02                                 F               0         Blade 1 Y force, node 55, N
        165   -6.718E+02                                 F               0         Blade 1 Z force, node 55, N
        166    4.204E+03                                 F               0         Blade 1 X force, node 56, N
        167    1.202E+02                                 F               0         Blade 1 Y force, node 56, N
        168   -6.985E+02                                 F               0         Blade 1 Z force, node 56, N
        169    5.043E+03                                 F               0         Blade 1 X force, node 57, N
        170    1.380E+02                                 F               0         Blade 1 Y force, node 57, N
        171   -8.484E+02                                 F               0         Blade 1 Z force, node 57, N
        172    3.564E+03                                 F               0         Blade 1 X force, node 58, N
        173    9.339E+01                                 F               0         Blade 1 Y force, node 58, N
        174   -6.066E+02                                 F               0         Blade 1 Z force, node 58, N
        175    4.403E+03                                 F               0         Blade 1 X force, node 59, N
        176    1.112E+02                                 F               0         Blade 1 Y force, node 59, N
        177   -7.566E+02                                 F               0         Blade 1 Z force, node 59, N
        178    3.785E+03                                 F               0         Blade 1 X force, node 60, N
        179    9.205E+01                                 F               0         Blade 1 Y force, node 60, N
        180   -6.565E+02                                 F               0         Blade 1 Z force, node 60, N
        181    5.219E+03                                 F               0         Blade 1 X force, node 61, N
        182    1.214E+02                                 F               0         Blade 1 Y force, node 61, N
        183   -9.147E+02                                 F               0         Blade 1 Z force, node 61, N
        184    4.600E+03                                 F               0         Blade 1 X force, node 62, N