
Linearized model: Predictions were generated on 12-Jan-2024 at 08:43:17 using OpenFAST, compiled as a 64-bit application using single precision at commit v3.5.1
 linked with  NWTC Subroutine Library; ElastoDyn; InflowWind; AeroDyn; ServoDyn; HydroDyn; MAP++ (<1.20.10>, <Oct-20-2023>)

Description from the FAST input file: CCT-9 Campign 4 model. Input files to be run with OpenFAST 3.5.0. GitHub branch from Lu Wang (https://github.com/luwang00/openfast/tree/dev) compiled on March 7, 2023.

Simulation information:
   Simulation time:                   507.4250 s
   Rotor Speed:                         0.7077 rad/s
   Azimuth:                             2.3870 rad
   Wind Speed:                          8.0000 m/s
   Number of continuous states:        22
   Number of discrete states:           0
   Number of constraint states:         0
   Number of inputs:                 3988
   Number of outputs:                  58
   Jacobians included in this file?    No

Order of continuous states:
   Row/Column Operating Point                     Rotating Frame? Derivative Order Description
   ---------- ---------------                     --------------- ---------------- -----------
          1    5.747E+00                                 F               2         ED Platform horizontal surge translation DOF (internal DOF index = DOF_Sg), m
          2   -4.669E-01                                 F               2         ED Platform horizontal sway translation DOF (internal DOF index = DOF_Sw), m
          3   -1.040E-01                                 F               2         ED Platform vertical heave translation DOF (internal DOF index = DOF_Hv), m
          4    4.563E-02                                 F               2         ED Platform roll tilt rotation DOF (internal DOF index = DOF_R), rad
          5    8.562E-02                                 F               2         ED Platform pitch tilt rotation DOF (internal DOF index = DOF_P), rad
          6    2.900E-03                                 F               2         ED Platform yaw rotation DOF (internal DOF index = DOF_Y), rad
          7    4.675E-01                                 F               2         ED 1st tower fore-aft bending mode DOF (internal DOF index = DOF_TFA1), m
          8    1.780E-01                                 F               2         ED 1st tower side-to-side bending mode DOF (internal DOF index = DOF_TSS1), m
          9    1.462E-03                                 F               2         ED 2nd tower fore-aft bending mode DOF (internal DOF index = DOF_TFA2), m
         10    7.758E-05                                 F               2         ED 2nd tower side-to-side bending mode DOF (internal DOF index = DOF_TSS2), m
         11    8.162E-01                                 F               2         ED Variable speed generator DOF (internal DOF index = DOF_GeAz), rad
         12   -5.255E-03                                 F               2         ED First time derivative of Platform horizontal surge translation DOF (internal DOF index = DOF_Sg), m/s
         13    5.549E-04                                 F               2         ED First time derivative of Platform horizontal sway translation DOF (internal DOF index = DOF_Sw), m/s
         14    3.240E-03                                 F               2         ED First time derivative of Platform vertical heave translation DOF (internal DOF index = DOF_Hv), m/s
         15   -2.802E-04                                 F               2         ED First time derivative of Platform roll tilt rotation DOF (internal DOF index = DOF_R), rad/s
         16    1.592E-05                                 F               2         ED First time derivative of Platform pitch tilt rotation DOF (internal DOF index = DOF_P), rad/s
         17    4.459E-05                                 F               2         ED First time derivative of Platform yaw rotation DOF (internal DOF index = DOF_Y), rad/s
         18   -6.709E-04                                 F               2         ED First time derivative of 1st tower fore-aft bending mode DOF (internal DOF index = DOF_TFA1), m/s
         19   -1.689E-03                                 F               2         ED First time derivative of 1st tower side-to-side bending mode DOF (internal DOF index = DOF_TSS1), m/s
         20    3.989E-06                                 F               2         ED First time derivative of 2nd tower fore-aft bending mode DOF (internal DOF index = DOF_TFA2), m/s
         21   -7.340E-07                                 F               2         ED First time derivative of 2nd tower side-to-side bending mode DOF (internal DOF index = DOF_TSS2), m/s
         22    7.077E-01                                 F               2         ED First time derivative of Variable speed generator DOF (internal DOF index = DOF_GeAz), rad/s

Order of continuous state derivatives:
   Row/Column Operating Point                     Rotating Frame? Derivative Order Description
   ---------- ---------------                     --------------- ---------------- -----------
          1   -5.255E-03                                 F               2         First time derivative of ED Platform horizontal surge translation DOF (internal DOF index = DOF_Sg), m/s
          2    5.549E-04                                 F               2         First time derivative of ED Platform horizontal sway translation DOF (internal DOF index = DOF_Sw), m/s
          3    3.240E-03                                 F               2         First time derivative of ED Platform vertical heave translation DOF (internal DOF index = DOF_Hv), m/s
          4   -2.802E-04                                 F               2         First time derivative of ED Platform roll tilt rotation DOF (internal DOF index = DOF_R), rad/s
          5    1.592E-05                                 F               2         First time derivative of ED Platform pitch tilt rotation DOF (internal DOF index = DOF_P), rad/s
          6    4.459E-05                                 F               2         First time derivative of ED Platform yaw rotation DOF (internal DOF index = DOF_Y), rad/s
          7   -6.709E-04                                 F               2         First time derivative of ED 1st tower fore-aft bending mode DOF (internal DOF index = DOF_TFA1), m/s
          8   -1.689E-03                                 F               2         First time derivative of ED 1st tower side-to-side bending mode DOF (internal DOF index = DOF_TSS1), m/s
          9    3.989E-06                                 F               2         First time derivative of ED 2nd tower fore-aft bending mode DOF (internal DOF index = DOF_TFA2), m/s
         10   -7.340E-07                                 F               2         First time derivative of ED 2nd tower side-to-side bending mode DOF (internal DOF index = DOF_TSS2), m/s
         11    7.077E-01                                 F               2         First time derivative of ED Variable speed generator DOF (internal DOF index = DOF_GeAz), rad/s
         12   -8.790E-05                                 F               2         First time derivative of ED First time derivative of Platform horizontal surge translation DOF (internal DOF index = DOF_Sg), m/s/s
         13   -6.741E-04                                 F               2         First time derivative of ED First time derivative of Platform horizontal sway translation DOF (internal DOF index = DOF_Sw), m/s/s
         14   -1.965E-04                                 F               2         First time derivative of ED First time derivative of Platform vertical heave translation DOF (internal DOF index = DOF_Hv), m/s/s
         15    2.846E-05                                 F               2         First time derivative of ED First time derivative of Platform roll tilt rotation DOF (internal DOF index = DOF_R), rad/s/s
         16    4.644E-07                                 F               2         First time derivative of ED First time derivative of Platform pitch tilt rotation DOF (internal DOF index = DOF_P), rad/s/s
         17   -3.225E-06                                 F               2         First time derivative of ED First time derivative of Platform yaw rotation DOF (internal DOF index = DOF_Y), rad/s/s
         18    2.869E-04                                 F               2         First time derivative of ED First time derivative of 1st tower fore-aft bending mode DOF (internal DOF index = DOF_TFA1), m/s/s
         19   -3.738E-04                                 F               2         First time derivative of ED First time derivative of 1st tower side-to-side bending mode DOF (internal DOF index = DOF_TSS1), m/s/s
         20   -4.810E-06                                 F               2         First time derivative of ED First time derivative of 2nd tower fore-aft bending mode DOF (internal DOF index = DOF_TFA2), m/s/s
         21    1.947E-06                                 F               2         First time derivative of ED First time derivative of 2nd tower side-to-side bending mode DOF (internal DOF index = DOF_TSS2), m/s/s
         22    1.686E-04                                 F               2         First time derivative of ED First time derivative of Variable speed generator DOF (internal DOF index = DOF_GeAz), rad/s/s

Order of inputs:
     Column   Operating Point                     Rotating Frame? Derivative Order Description
   ---------- ---------------                     --------------- ---------------- -----------
          1   -1.080E+01                                 F               0         IfW X-component position of node 1 (hub), m
          2    0.000E+00                                 F               0         IfW Y-component position of node 1 (hub), m
          3    1.497E+02                                 F               0         IfW Z-component position of node 1 (hub), m
          4    7.490E+00                                 F               0         IfW X-component position of node 2 (blade 1, node 1), m
          5   -1.110E+01                                 F               0         IfW Y-component position of node 2 (blade 1, node 1), m
          6    1.457E+02                                 F               0         IfW Z-component position of node 2 (blade 1, node 1), m
          7    7.302E+00                                 F               0         IfW X-component position of node 3 (blade 1, node 2), m
          8   -1.197E+01                                 F               0         IfW Y-component position of node 3 (blade 1, node 2), m
          9    1.447E+02                                 F               0         IfW Z-component position of node 3 (blade 1, node 2), m
         10    4.743E+00                                 F               0         IfW X-component position of node 4 (blade 1, node 3), m
         11   -2.377E+01                                 F               0         IfW Y-component position of node 4 (blade 1, node 3), m
         12    1.312E+02                                 F               0         IfW Z-component position of node 4 (blade 1, node 3), m
         13    4.198E+00                                 F               0         IfW X-component position of node 5 (blade 1, node 4), m
         14   -2.628E+01                                 F               0         IfW Y-component position of node 5 (blade 1, node 4), m
         15    1.283E+02                                 F               0         IfW Z-component position of node 5 (blade 1, node 4), m
         16    3.653E+00                                 F               0         IfW X-component position of node 6 (blade 1, node 5), m
         17   -2.880E+01                                 F               0         IfW Y-component position of node 6 (blade 1, node 5), m
         18    1.254E+02                                 F               0         IfW Z-component position of node 6 (blade 1, node 5), m
         19    3.108E+00                                 F               0         IfW X-component position of node 7 (blade 1, node 6), m
         20   -3.131E+01                                 F               0         IfW Y-component position of node 7 (blade 1, node 6), m
         21    1.225E+02                                 F               0         IfW Z-component position of node 7 (blade 1, node 6), m
         22    2.563E+00                                 F               0         IfW X-component position of node 8 (blade 1, node 7), m
         23   -3.383E+01                                 F               0         IfW Y-component position of node 8 (blade 1, node 7), m
         24    1.196E+02                                 F               0         IfW Z-component position of node 8 (blade 1, node 7), m
         25    2.017E+00                                 F               0         IfW X-component position of node 9 (blade 1, node 8), m
         26   -3.634E+01                                 F               0         IfW Y-component position of node 9 (blade 1, node 8), m
         27    1.167E+02                                 F               0         IfW Z-component position of node 9 (blade 1, node 8), m
         28    1.472E+00                                 F               0         IfW X-component position of node 10 (blade 1, node 9), m
         29   -3.886E+01                                 F               0         IfW Y-component position of node 10 (blade 1, node 9), m
         30    1.138E+02                                 F               0         IfW Z-component position of node 10 (blade 1, node 9), m
         31    9.270E-01                                 F               0         IfW X-component position of node 11 (blade 1, node 10), m
         32   -4.137E+01                                 F               0         IfW Y-component position of node 11 (blade 1, node 10), m
         33    1.110E+02                                 F               0         IfW Z-component position of node 11 (blade 1, node 10), m
         34    3.818E-01                                 F               0         IfW X-component position of node 12 (blade 1, node 11), m
         35   -4.389E+01                                 F               0         IfW Y-component position of node 12 (blade 1, node 11), m
         36    1.081E+02                                 F               0         IfW Z-component position of node 12 (blade 1, node 11), m
         37   -1.635E-01                                 F               0         IfW X-component position of node 13 (blade 1, node 12), m
         38   -4.640E+01                                 F               0         IfW Y-component position of node 13 (blade 1, node 12), m
         39    1.052E+02                                 F               0         IfW Z-component position of node 13 (blade 1, node 12), m
         40   -7.087E-01                                 F               0         IfW X-component position of node 14 (blade 1, node 13), m
         41   -4.892E+01                                 F               0         IfW Y-component position of node 14 (blade 1, node 13), m
         42    1.023E+02                                 F               0         IfW Z-component position of node 14 (blade 1, node 13), m
         43   -1.254E+00                                 F               0         IfW X-component position of node 15 (blade 1, node 14), m
         44   -5.143E+01                                 F               0         IfW Y-component position of node 15 (blade 1, node 14), m
         45    9.941E+01                                 F               0         IfW Z-component position of node 15 (blade 1, node 14), m
         46   -1.799E+00                                 F               0         IfW X-component position of node 16 (blade 1, node 15), m
         47   -5.395E+01                                 F               0         IfW Y-component position of node 16 (blade 1, node 15), m
         48    9.652E+01                                 F               0         IfW Z-component position of node 16 (blade 1, node 15), m
         49   -2.344E+00                                 F               0         IfW X-component position of node 17 (blade 1, node 16), m
         50   -5.646E+01                                 F               0         IfW Y-component position of node 17 (blade 1, node 16), m
         51    9.364E+01                                 F               0         IfW Z-component position of node 17 (blade 1, node 16), m
         52   -2.889E+00                                 F               0         IfW X-component position of node 18 (blade 1, node 17), m
         53   -5.898E+01                                 F               0         IfW Y-component position of node 18 (blade 1, node 17), m
         54    9.075E+01                                 F               0         IfW Z-component position of node 18 (blade 1, node 17), m
         55   -3.435E+00                                 F               0         IfW X-component position of node 19 (blade 1, node 18), m
         56   -6.149E+01                                 F               0         IfW Y-component position of node 19 (blade 1, node 18), m
         57    8.786E+01                                 F               0         IfW Z-component position of node 19 (blade 1, node 18), m
         58   -3.980E+00                                 F               0         IfW X-component position of node 20 (blade 1, node 19), m
         59   -6.401E+01                                 F               0         IfW Y-component position of node 20 (blade 1, node 19), m
         60    8.497E+01                                 F               0         IfW Z-component position of node 20 (blade 1, node 19), m
         61   -4.525E+00                                 F               0         IfW X-component position of node 21 (blade 1, node 20), m
         62   -6.652E+01                                 F               0         IfW Y-component position of node 21 (blade 1, node 20), m
         63    8.209E+01                                 F               0         IfW Z-component position of node 21 (blade 1, node 20), m
         64   -5.070E+00                                 F               0         IfW X-component position of node 22 (blade 1, node 21), m
         65   -6.903E+01                                 F               0         IfW Y-component position of node 22 (blade 1, node 21), m
         66    7.920E+01                                 F               0         IfW Z-component position of node 22 (blade 1, node 21), m
         67   -5.616E+00                                 F               0         IfW X-component position of node 23 (blade 1, node 22), m
         68   -7.155E+01                                 F               0         IfW Y-component position of node 23 (blade 1, node 22), m
         69    7.631E+01                                 F               0         IfW Z-component position of node 23 (blade 1, node 22), m
         70   -6.161E+00                                 F               0         IfW X-component position of node 24 (blade 1, node 23), m
         71   -7.406E+01                                 F               0         IfW Y-component position of node 24 (blade 1, node 23), m
         72    7.342E+01                                 F               0         IfW Z-component position of node 24 (blade 1, node 23), m
         73   -6.706E+00                                 F               0         IfW X-component position of node 25 (blade 1, node 24), m
         74   -7.658E+01                                 F               0         IfW Y-component position of node 25 (blade 1, node 24), m
         75    7.054E+01                                 F               0         IfW Z-component position of node 25 (blade 1, node 24), m
         76   -7.251E+00                                 F               0         IfW X-component position of node 26 (blade 1, node 25), m
         77   -7.909E+01                                 F               0         IfW Y-component position of node 26 (blade 1, node 25), m
         78    6.765E+01                                 F               0         IfW Z-component position of node 26 (blade 1, node 25), m
         79   -7.796E+00                                 F               0         IfW X-component position of node 27 (blade 1, node 26), m
         80   -8.161E+01                                 F               0         IfW Y-component position of node 27 (blade 1, node 26), m
         81    6.476E+01                                 F               0         IfW Z-component position of node 27 (blade 1, node 26), m
         82   -8.342E+00                                 F               0         IfW X-component position of node 28 (blade 1, node 27), m
         83   -8.412E+01                                 F               0         IfW Y-component position of node 28 (blade 1, node 27), m
         84    6.187E+01                                 F               0         IfW Z-component position of node 28 (blade 1, node 27), m
         85   -8.804E+00                                 F               0         IfW X-component position of node 29 (blade 1, node 28), m
         86   -8.626E+01                                 F               0         IfW Y-component position of node 29 (blade 1, node 28), m
         87    5.943E+01                                 F               0         IfW Z-component position of node 29 (blade 1, node 28), m
         88    8.021E+00                                 F               0         IfW X-component position of node 30 (blade 2, node 1), m
         89   -2.050E+00                                 F               0         IfW Y-component position of node 30 (blade 2, node 1), m
         90    1.489E+02                                 F               0         IfW Z-component position of node 30 (blade 2, node 1), m
         91    7.961E+00                                 F               0         IfW X-component position of node 31 (blade 2, node 2), m
         92   -7.376E-01                                 F               0         IfW Y-component position of node 31 (blade 2, node 2), m
         93    1.486E+02                                 F               0         IfW Z-component position of node 31 (blade 2, node 2), m
         94    7.140E+00                                 F               0         IfW X-component position of node 32 (blade 2, node 3), m
         95    1.711E+01                                 F               0         IfW Y-component position of node 32 (blade 2, node 3), m
         96    1.454E+02                                 F               0         IfW Z-component position of node 32 (blade 2, node 3), m
         97    6.966E+00                                 F               0         IfW X-component position of node 33 (blade 2, node 4), m
         98    2.091E+01                                 F               0         IfW Y-component position of node 33 (blade 2, node 4), m
         99    1.447E+02                                 F               0         IfW Z-component position of node 33 (blade 2, node 4), m
        100    6.791E+00                                 F               0         IfW X-component position of node 34 (blade 2, node 5), m
        101    2.471E+01                                 F               0         IfW Y-component position of node 34 (blade 2, node 5), m
        102    1.440E+02                                 F               0         IfW Z-component position of node 34 (blade 2, node 5), m
        103    6.616E+00                                 F               0         IfW X-component position of node 35 (blade 2, node 6), m
        104    2.851E+01                                 F               0         IfW Y-component position of node 35 (blade 2, node 6), m
        105    1.433E+02                                 F               0         IfW Z-component position of node 35 (blade 2, node 6), m
        106    6.441E+00                                 F               0         IfW X-component position of node 36 (blade 2, node 7), m
        107    3.231E+01                                 F               0         IfW Y-component position of node 36 (blade 2, node 7), m
        108    1.427E+02                                 F               0         IfW Z-component position of node 36 (blade 2, node 7), m
        109    6.267E+00                                 F               0         IfW X-component position of node 37 (blade 2, node 8), m
        110    3.612E+01                                 F               0         IfW Y-component position of node 37 (blade 2, node 8), m
        111    1.420E+02                                 F               0         IfW Z-component position of node 37 (blade 2, node 8), m
        112    6.092E+00                                 F               0         IfW X-component position of node 38 (blade 2, node 9), m
        113    3.992E+01                                 F               0         IfW Y-component position of node 38 (blade 2, node 9), m
        114    1.413E+02                                 F               0         IfW Z-component position of node 38 (blade 2, node 9), m
        115    5.917E+00                                 F               0         IfW X-component position of node 39 (blade 2, node 10), m
        116    4.372E+01                                 F               0         IfW Y-component position of node 39 (blade 2, node 10), m
        117    1.406E+02                                 F               0         IfW Z-component position of node 39 (blade 2, node 10), m
        118    5.742E+00                                 F               0         IfW X-component position of node 40 (blade 2, node 11), m
        119    4.752E+01                                 F               0         IfW Y-component position of node 40 (blade 2, node 11), m
        120    1.399E+02                                 F               0         IfW Z-component position of node 40 (blade 2, node 11), m
        121    5.567E+00                                 F               0         IfW X-component position of node 41 (blade 2, node 12), m
        122    5.132E+01                                 F               0         IfW Y-component position of node 41 (blade 2, node 12), m
        123    1.392E+02                                 F               0         IfW Z-component position of node 41 (blade 2, node 12), m
        124    5.393E+00                                 F               0         IfW X-component position of node 42 (blade 2, node 13), m
        125    5.513E+01                                 F               0         IfW Y-component position of node 42 (blade 2, node 13), m
        126    1.385E+02                                 F               0         IfW Z-component position of node 42 (blade 2, node 13), m
        127    5.218E+00                                 F               0         IfW X-component position of node 43 (blade 2, node 14), m
        128    5.893E+01                                 F               0         IfW Y-component position of node 43 (blade 2, node 14), m
        129    1.378E+02                                 F               0         IfW Z-component position of node 43 (blade 2, node 14), m
        130    5.043E+00                                 F               0         IfW X-component position of node 44 (blade 2, node 15), m
        131    6.273E+01                                 F               0         IfW Y-component position of node 44 (blade 2, node 15), m
        132    1.372E+02                                 F               0         IfW Z-component position of node 44 (blade 2, node 15), m
        133    4.868E+00                                 F               0         IfW X-component position of node 45 (blade 2, node 16), m
        134    6.653E+01                                 F               0         IfW Y-component position of node 45 (blade 2, node 16), m
        135    1.365E+02                                 F               0         IfW Z-component position of node 45 (blade 2, node 16), m
        136    4.694E+00                                 F               0         IfW X-component position of node 46 (blade 2, node 17), m
        137    7.033E+01                                 F               0         IfW Y-component position of node 46 (blade 2, node 17), m
        138    1.358E+02                                 F               0         IfW Z-component position of node 46 (blade 2, node 17), m
        139    4.519E+00                                 F               0         IfW X-component position of node 47 (blade 2, node 18), m
        140    7.414E+01                                 F               0         IfW Y-component position of node 47 (blade 2, node 18), m
        141    1.351E+02                                 F               0         IfW Z-component position of node 47 (blade 2, node 18), m
        142    4.344E+00                                 F               0         IfW X-component position of node 48 (blade 2, node 19), m
        143    7.794E+01                                 F               0         IfW Y-component position of node 48 (blade 2, node 19), m
        144    1.344E+02                                 F               0         IfW Z-component position of node 48 (blade 2, node 19), m