
Linearized model: Predictions were generated on 12-Jan-2024 at 08:43:17 using OpenFAST, compiled as a 64-bit application using single precision at commit v3.5.1
 linked with  NWTC Subroutine Library; ElastoDyn; InflowWind; AeroDyn; ServoDyn; HydroDyn; MAP++ (<1.20.10>, <Oct-20-2023>)

Description from the FAST input file: CCT-9 Campign 4 model. Input files to be run with OpenFAST 3.5.0. GitHub branch from Lu Wang (https://github.com/luwang00/openfast/tree/dev) compiled on March 7, 2023.

Simulation information:
   Simulation time:                   504.2000 s
   Rotor Speed:                         0.7075 rad/s
   Azimuth:                             0.1054 rad
   Wind Speed:                          8.0000 m/s
   Number of continuous states:        22
   Number of discrete states:           0
   Number of constraint states:         0
   Number of inputs:                 1890
   Number of outputs:                  38
   Jacobians included in this file?    No

Order of continuous states:
   Row/Column Operating Point                     Rotating Frame? Derivative Order Description
   ---------- ---------------                     --------------- ---------------- -----------
          1    5.764E+00                                 F               2         Platform horizontal surge translation DOF (internal DOF index = DOF_Sg), m
          2   -4.712E-01                                 F               2         Platform horizontal sway translation DOF (internal DOF index = DOF_Sw), m
          3   -1.134E-01                                 F               2         Platform vertical heave translation DOF (internal DOF index = DOF_Hv), m
          4    4.655E-02                                 F               2         Platform roll tilt rotation DOF (internal DOF index = DOF_R), rad
          5    8.560E-02                                 F               2         Platform pitch tilt rotation DOF (internal DOF index = DOF_P), rad
          6    2.743E-03                                 F               2         Platform yaw rotation DOF (internal DOF index = DOF_Y), rad
          7    4.677E-01                                 F               2         1st tower fore-aft bending mode DOF (internal DOF index = DOF_TFA1), m
          8    1.827E-01                                 F               2         1st tower side-to-side bending mode DOF (internal DOF index = DOF_TSS1), m
          9    1.461E-03                                 F               2         2nd tower fore-aft bending mode DOF (internal DOF index = DOF_TFA2), m
         10    8.124E-05                                 F               2         2nd tower side-to-side bending mode DOF (internal DOF index = DOF_TSS2), m
         11    4.818E+00                                 F               2         Variable speed generator DOF (internal DOF index = DOF_GeAz), rad
         12   -4.996E-03                                 F               2         First time derivative of Platform horizontal surge translation DOF (internal DOF index = DOF_Sg), m/s
         13    1.790E-03                                 F               2         First time derivative of Platform horizontal sway translation DOF (internal DOF index = DOF_Sw), m/s
         14    2.074E-03                                 F               2         First time derivative of Platform vertical heave translation DOF (internal DOF index = DOF_Hv), m/s
         15   -2.532E-04                                 F               2         First time derivative of Platform roll tilt rotation DOF (internal DOF index = DOF_R), rad/s
         16   -4.330E-07                                 F               2         First time derivative of Platform pitch tilt rotation DOF (internal DOF index = DOF_P), rad/s
         17    5.145E-05                                 F               2         First time derivative of Platform yaw rotation DOF (internal DOF index = DOF_Y), rad/s
         18   -4.166E-04                                 F               2         First time derivative of 1st tower fore-aft bending mode DOF (internal DOF index = DOF_TFA1), m/s
         19   -1.364E-03                                 F               2         First time derivative of 1st tower side-to-side bending mode DOF (internal DOF index = DOF_TSS1), m/s
         20    7.797E-07                                 F               2         First time derivative of 2nd tower fore-aft bending mode DOF (internal DOF index = DOF_TFA2), m/s
         21   -9.572E-07                                 F               2         First time derivative of 2nd tower side-to-side bending mode DOF (internal DOF index = DOF_TSS2), m/s
         22    7.075E-01                                 F               2         First time derivative of Variable speed generator DOF (internal DOF index = DOF_GeAz), rad/s

Order of continuous state derivatives:
   Row/Column Operating Point                     Rotating Frame? Derivative Order Description
   ---------- ---------------                     --------------- ---------------- -----------
          1   -4.996E-03                                 F               2         First time derivative of Platform horizontal surge translation DOF (internal DOF index = DOF_Sg), m/s
          2    1.790E-03                                 F               2         First time derivative of Platform horizontal sway translation DOF (internal DOF index = DOF_Sw), m/s
          3    2.074E-03                                 F               2         First time derivative of Platform vertical heave translation DOF (internal DOF index = DOF_Hv), m/s
          4   -2.532E-04                                 F               2         First time derivative of Platform roll tilt rotation DOF (internal DOF index = DOF_R), rad/s
          5   -4.330E-07                                 F               2         First time derivative of Platform pitch tilt rotation DOF (internal DOF index = DOF_P), rad/s
          6    5.145E-05                                 F               2         First time derivative of Platform yaw rotation DOF (internal DOF index = DOF_Y), rad/s
          7   -4.166E-04                                 F               2         First time derivative of 1st tower fore-aft bending mode DOF (internal DOF index = DOF_TFA1), m/s
          8   -1.364E-03                                 F               2         First time derivative of 1st tower side-to-side bending mode DOF (internal DOF index = DOF_TSS1), m/s
          9    7.797E-07                                 F               2         First time derivative of 2nd tower fore-aft bending mode DOF (internal DOF index = DOF_TFA2), m/s
         10   -9.572E-07                                 F               2         First time derivative of 2nd tower side-to-side bending mode DOF (internal DOF index = DOF_TSS2), m/s
         11    7.075E-01                                 F               2         First time derivative of Variable speed generator DOF (internal DOF index = DOF_GeAz), rad/s
         12   -1.159E-04                                 F               2         First time derivative of First time derivative of Platform horizontal surge translation DOF (internal DOF index = DOF_Sg), m/s/s
         13   -8.435E-05                                 F               2         First time derivative of First time derivative of Platform horizontal sway translation DOF (internal DOF index = DOF_Sw), m/s/s
         14    7.513E-04                                 F               2         First time derivative of First time derivative of Platform vertical heave translation DOF (internal DOF index = DOF_Hv), m/s/s
         15   -4.422E-05                                 F               2         First time derivative of First time derivative of Platform roll tilt rotation DOF (internal DOF index = DOF_R), rad/s/s
         16    6.444E-06                                 F               2         First time derivative of First time derivative of Platform pitch tilt rotation DOF (internal DOF index = DOF_P), rad/s/s
         17    7.532E-07                                 F               2         First time derivative of First time derivative of Platform yaw rotation DOF (internal DOF index = DOF_Y), rad/s/s
         18   -3.709E-04                                 F               2         First time derivative of First time derivative of 1st tower fore-aft bending mode DOF (internal DOF index = DOF_TFA1), m/s/s
         19   -1.866E-04                                 F               2         First time derivative of First time derivative of 1st tower side-to-side bending mode DOF (internal DOF index = DOF_TSS1), m/s/s
         20    1.434E-06                                 F               2         First time derivative of First time derivative of 2nd tower fore-aft bending mode DOF (internal DOF index = DOF_TFA2), m/s/s
         21    8.754E-08                                 F               2         First time derivative of First time derivative of 2nd tower side-to-side bending mode DOF (internal DOF index = DOF_TSS2), m/s/s
         22   -6.170E-05                                 F               2         First time derivative of First time derivative of Variable speed generator DOF (internal DOF index = DOF_GeAz), rad/s/s

Order of inputs:
     Column   Operating Point                     Rotating Frame? Derivative Order Description
   ---------- ---------------                     --------------- ---------------- -----------
          1    4.745E+01                                 F               0         Blade 1 X force, node 1, N
          2    5.273E+01                                 F               0         Blade 1 Y force, node 1, N
          3   -1.163E+00                                 F               0         Blade 1 Z force, node 1, N
          4    1.992E+02                                 F               0         Blade 1 X force, node 2, N
          5    1.007E+02                                 F               0         Blade 1 Y force, node 2, N
          6   -2.387E+01                                 F               0         Blade 1 Z force, node 2, N
          7    2.560E+02                                 F               0         Blade 1 X force, node 3, N
          8    6.410E+01                                 F               0         Blade 1 Y force, node 3, N
          9   -4.094E+01                                 F               0         Blade 1 Z force, node 3, N
         10    3.340E+02                                 F               0         Blade 1 X force, node 4, N
         11    3.986E+01                                 F               0         Blade 1 Y force, node 4, N
         12   -6.030E+01                                 F               0         Blade 1 Z force, node 4, N
         13    4.120E+02                                 F               0         Blade 1 X force, node 5, N
         14    1.562E+01                                 F               0         Blade 1 Y force, node 5, N
         15   -7.965E+01                                 F               0         Blade 1 Z force, node 5, N
         16    4.900E+02                                 F               0         Blade 1 X force, node 6, N
         17   -8.624E+00                                 F               0         Blade 1 Y force, node 6, N
         18   -9.901E+01                                 F               0         Blade 1 Z force, node 6, N
         19    5.680E+02                                 F               0         Blade 1 X force, node 7, N
         20   -3.287E+01                                 F               0         Blade 1 Y force, node 7, N
         21   -1.184E+02                                 F               0         Blade 1 Z force, node 7, N
         22    6.460E+02                                 F               0         Blade 1 X force, node 8, N
         23   -5.711E+01                                 F               0         Blade 1 Y force, node 8, N
         24   -1.377E+02                                 F               0         Blade 1 Z force, node 8, N
         25    7.240E+02                                 F               0         Blade 1 X force, node 9, N
         26   -8.135E+01                                 F               0         Blade 1 Y force, node 9, N
         27   -1.571E+02                                 F               0         Blade 1 Z force, node 9, N
         28    8.020E+02                                 F               0         Blade 1 X force, node 10, N
         29   -1.056E+02                                 F               0         Blade 1 Y force, node 10, N
         30   -1.764E+02                                 F               0         Blade 1 Z force, node 10, N
         31    8.800E+02                                 F               0         Blade 1 X force, node 11, N
         32   -1.298E+02                                 F               0         Blade 1 Y force, node 11, N
         33   -1.958E+02                                 F               0         Blade 1 Z force, node 11, N
         34    9.581E+02                                 F               0         Blade 1 X force, node 12, N
         35   -1.541E+02                                 F               0         Blade 1 Y force, node 12, N
         36   -2.151E+02                                 F               0         Blade 1 Z force, node 12, N
         37    1.036E+03                                 F               0         Blade 1 X force, node 13, N
         38   -1.783E+02                                 F               0         Blade 1 Y force, node 13, N
         39   -2.345E+02                                 F               0         Blade 1 Z force, node 13, N
         40    1.114E+03                                 F               0         Blade 1 X force, node 14, N
         41   -2.026E+02                                 F               0         Blade 1 Y force, node 14, N
         42   -2.539E+02                                 F               0         Blade 1 Z force, node 14, N
         43    1.192E+03                                 F               0         Blade 1 X force, node 15, N
         44   -2.268E+02                                 F               0         Blade 1 Y force, node 15, N
         45   -2.732E+02                                 F               0         Blade 1 Z force, node 15, N
         46    1.270E+03                                 F               0         Blade 1 X force, node 16, N
         47   -2.510E+02                                 F               0         Blade 1 Y force, node 16, N
         48   -2.926E+02                                 F               0         Blade 1 Z force, node 16, N
         49    1.564E+03                                 F               0         Blade 1 X force, node 17, N
         50   -3.178E+02                                 F               0         Blade 1 Y force, node 17, N
         51   -3.617E+02                                 F               0         Blade 1 Z force, node 17, N
         52    1.202E+03                                 F               0         Blade 1 X force, node 18, N
         53   -2.349E+02                                 F               0         Blade 1 Y force, node 18, N
         54   -2.764E+02                                 F               0         Blade 1 Z force, node 18, N
         55    1.485E+03                                 F               0         Blade 1 X force, node 19, N
         56   -2.739E+02                                 F               0         Blade 1 Y force, node 19, N
         57   -3.390E+02                                 F               0         Blade 1 Z force, node 19, N
         58    1.275E+03                                 F               0         Blade 1 X force, node 20, N
         59   -2.222E+02                                 F               0         Blade 1 Y force, node 20, N
         60   -2.889E+02                                 F               0         Blade 1 Z force, node 20, N
         61    1.896E+03                                 F               0         Blade 1 X force, node 21, N
         62   -3.093E+02                                 F               0         Blade 1 Y force, node 21, N
         63   -4.264E+02                                 F               0         Blade 1 Z force, node 21, N
         64    1.685E+03                                 F               0         Blade 1 X force, node 22, N
         65   -2.569E+02                                 F               0         Blade 1 Y force, node 22, N
         66   -3.762E+02                                 F               0         Blade 1 Z force, node 22, N
         67    1.741E+03                                 F               0         Blade 1 X force, node 23, N
         68   -2.494E+02                                 F               0         Blade 1 Y force, node 23, N
         69   -3.862E+02                                 F               0         Blade 1 Z force, node 23, N
         70    1.828E+03                                 F               0         Blade 1 X force, node 24, N
         71   -2.462E+02                                 F               0         Blade 1 Y force, node 24, N
         72   -4.030E+02                                 F               0         Blade 1 Z force, node 24, N
         73    1.884E+03                                 F               0         Blade 1 X force, node 25, N
         74   -2.382E+02                                 F               0         Blade 1 Y force, node 25, N
         75   -4.128E+02                                 F               0         Blade 1 Z force, node 25, N
         76    1.949E+03                                 F               0         Blade 1 X force, node 26, N
         77   -2.316E+02                                 F               0         Blade 1 Y force, node 26, N
         78   -4.248E+02                                 F               0         Blade 1 Z force, node 26, N
         79    2.347E+03                                 F               0         Blade 1 X force, node 27, N
         80   -2.611E+02                                 F               0         Blade 1 Y force, node 27, N
         81   -5.088E+02                                 F               0         Blade 1 Z force, node 27, N
         82    1.748E+03                                 F               0         Blade 1 X force, node 28, N
         83   -1.821E+02                                 F               0         Blade 1 Y force, node 28, N
         84   -3.769E+02                                 F               0         Blade 1 Z force, node 28, N
         85    2.146E+03                                 F               0         Blade 1 X force, node 29, N
         86   -2.113E+02                                 F               0         Blade 1 Y force, node 29, N
         87   -4.608E+02                                 F               0         Blade 1 Z force, node 29, N
         88    1.832E+03                                 F               0         Blade 1 X force, node 30, N
         89   -1.705E+02                                 F               0         Blade 1 Y force, node 30, N
         90   -3.918E+02                                 F               0         Blade 1 Z force, node 30, N
         91    2.656E+03                                 F               0         Blade 1 X force, node 31, N
         92   -2.312E+02                                 F               0         Blade 1 Y force, node 31, N
         93   -5.657E+02                                 F               0         Blade 1 Z force, node 31, N
         94    2.342E+03                                 F               0         Blade 1 X force, node 32, N
         95   -1.902E+02                                 F               0         Blade 1 Y force, node 32, N
         96   -4.966E+02                                 F               0         Blade 1 Z force, node 32, N
         97    2.407E+03                                 F               0         Blade 1 X force, node 33, N
         98   -1.830E+02                                 F               0         Blade 1 Y force, node 33, N
         99   -5.084E+02                                 F               0         Blade 1 Z force, node 33, N
        100    2.472E+03                                 F               0         Blade 1 X force, node 34, N
        101   -1.759E+02                                 F               0         Blade 1 Y force, node 34, N
        102   -5.203E+02                                 F               0         Blade 1 Z force, node 34, N
        103    2.537E+03                                 F               0         Blade 1 X force, node 35, N
        104   -1.686E+02                                 F               0         Blade 1 Y force, node 35, N
        105   -5.322E+02                                 F               0         Blade 1 Z force, node 35, N
        106    2.602E+03                                 F               0         Blade 1 X force, node 36, N
        107   -1.613E+02                                 F               0         Blade 1 Y force, node 36, N
        108   -5.439E+02                                 F               0         Blade 1 Z force, node 36, N
        109    3.121E+03                                 F               0         Blade 1 X force, node 37, N
        110   -1.793E+02                                 F               0         Blade 1 Y force, node 37, N
        111   -6.501E+02                                 F               0         Blade 1 Z force, node 37, N
        112    2.279E+03                                 F               0         Blade 1 X force, node 38, N
        113   -1.213E+02                                 F               0         Blade 1 Y force, node 38, N
        114   -4.731E+02                                 F               0         Blade 1 Z force, node 38, N
        115    2.798E+03                                 F               0         Blade 1 X force, node 39, N
        116   -1.393E+02                                 F               0         Blade 1 Y force, node 39, N
        117   -5.795E+02                                 F               0         Blade 1 Z force, node 39, N
        118    2.390E+03                                 F               0         Blade 1 X force, node 40, N
        119   -1.111E+02                                 F               0         Blade 1 Y force, node 40, N
        120   -4.938E+02                                 F               0         Blade 1 Z force, node 40, N
        121    3.402E+03                                 F               0         Blade 1 X force, node 41, N
        122   -1.454E+02                                 F               0         Blade 1 Y force, node 41, N
        123   -7.008E+02                                 F               0         Blade 1 Z force, node 41, N
        124    2.993E+03                                 F               0         Blade 1 X force, node 42, N
        125   -1.170E+02                                 F               0         Blade 1 Y force, node 42, N
        126   -6.149E+02                                 F               0         Blade 1 Z force, node 42, N
        127    3.058E+03                                 F               0         Blade 1 X force, node 43, N
        128   -1.094E+02                                 F               0         Blade 1 Y force, node 43, N
        129   -6.265E+02                                 F               0         Blade 1 Z force, node 43, N
        130    3.139E+03                                 F               0         Blade 1 X force, node 44, N
        131   -1.024E+02                                 F               0         Blade 1 Y force, node 44, N
        132   -6.416E+02                                 F               0         Blade 1 Z force, node 44, N
        133    3.170E+03                                 F               0         Blade 1 X force, node 45, N
        134   -9.379E+01                                 F               0         Blade 1 Y force, node 45, N
        135   -6.465E+02                                 F               0         Blade 1 Z force, node 45, N
        136    3.251E+03                                 F               0         Blade 1 X force, node 46, N
        137   -8.674E+01                                 F               0         Blade 1 Y force, node 46, N
        138   -6.616E+02                                 F               0         Blade 1 Z force, node 46, N
        139    3.898E+03                                 F               0         Blade 1 X force, node 47, N
        140   -9.233E+01                                 F               0         Blade 1 Y force, node 47, N
        141   -7.913E+02                                 F               0         Blade 1 Z force, node 47, N
        142    2.798E+03                                 F               0         Blade 1 X force, node 48, N
        143   -5.834E+01                                 F               0         Blade 1 Y force, node 48, N
        144   -5.668E+02                                 F               0         Blade 1 Z force, node 48, N
        145    3.444E+03                                 F               0         Blade 1 X force, node 49, N
        146   -6.386E+01                                 F               0         Blade 1 Y force, node 49, N
        147   -6.964E+02                                 F               0         Blade 1 Z force, node 49, N
        148    2.950E+03                                 F               0         Blade 1 X force, node 50, N
        149   -4.802E+01                                 F               0         Blade 1 Y force, node 50, N
        150   -5.955E+02                                 F               0         Blade 1 Z force, node 50, N
        151    4.132E+03                                 F               0         Blade 1 X force, node 51, N
        152   -5.672E+01                                 F               0         Blade 1 Y force, node 51, N
        153   -8.322E+02                                 F               0         Blade 1 Z force, node 51, N
        154    3.638E+03                                 F               0         Blade 1 X force, node 52, N
        155   -4.092E+01                                 F               0         Blade 1 Y force, node 52, N
        156   -7.315E+02                                 F               0         Blade 1 Z force, node 52, N
        157    3.703E+03                                 F               0         Blade 1 X force, node 53, N
        158   -3.330E+01                                 F               0         Blade 1 Y force, node 53, N
        159   -7.432E+02                                 F               0         Blade 1 Z force, node 53, N
        160    3.810E+03                                 F               0         Blade 1 X force, node 54, N
        161   -2.592E+01                                 F               0         Blade 1 Y force, node 54, N
        162   -7.633E+02                                 F               0         Blade 1 Z force, node 54, N
        163    3.792E+03                                 F               0         Blade 1 X force, node 55, N
        164   -1.774E+01                                 F               0         Blade 1 Y force, node 55, N
        165   -7.584E+02                                 F               0         Blade 1 Z force, node 55, N
        166    3.898E+03                                 F               0         Blade 1 X force, node 56, N
        167   -1.030E+01                                 F               0         Blade 1 Y force, node 56, N
        168   -7.784E+02                                 F               0         Blade 1 Z force, node 56, N
        169    4.680E+03                                 F               0         Blade 1 X force, node 57, N
        170   -2.453E+00                                 F               0         Blade 1 Y force, node 57, N
        171   -9.330E+02                                 F               0         Blade 1 Z force, node 57, N
        172    3.310E+03                                 F               0         Blade 1 X force, node 58, N
        173    4.942E+00                                 F               0         Blade 1 Y force, node 58, N
        174   -6.588E+02                                 F               0         Blade 1 Z force, node 58, N
        175    4.092E+03                                 F               0         Blade 1 X force, node 59, N
        176    1.282E+01                                 F               0         Blade 1 Y force, node 59, N
        177   -8.134E+02                                 F               0         Blade 1 Z force, node 59, N
        178    3.520E+03                                 F               0         Blade 1 X force, node 60, N
        179    1.677E+01                                 F               0         Blade 1 Y force, node 60, N
        180   -6.989E+02                                 F               0         Blade 1 Z force, node 60, N
        181    4.858E+03                                 F               0         Blade 1 X force, node 61, N
        182    3.209E+01                                 F               0         Blade 1 Y force, node 61, N
        183   -9.630E+02                                 F               0         Blade 1 Z force, node 61, N
        184    4.285E+03                                 F               0         Blade 1 X force, node 62, N