
Linearized model: Predictions were generated on 12-Jan-2024 at 08:43:17 using OpenFAST, compiled as a 64-bit application using single precision at commit v3.5.1
 linked with  NWTC Subroutine Library; ElastoDyn; InflowWind; AeroDyn; ServoDyn; HydroDyn; MAP++ (<1.20.10>, <Oct-20-2023>)

Description from the FAST input file: CCT-9 Campign 4 model. Input files to be run with OpenFAST 3.5.0. GitHub branch from Lu Wang (https://github.com/luwang00/openfast/tree/dev) compiled on March 7, 2023.

Simulation information:
   Simulation time:                   503.7250 s
   Rotor Speed:                         0.7075 rad/s
   Azimuth:                             6.0525 rad
   Wind Speed:                          8.0000 m/s
   Number of continuous states:        22
   Number of discrete states:           0
   Number of constraint states:         0
   Number of inputs:                 1890
   Number of outputs:                  38
   Jacobians included in this file?    No

Order of continuous states:
   Row/Column Operating Point                     Rotating Frame? Derivative Order Description
   ---------- ---------------                     --------------- ---------------- -----------
          1    5.767E+00                                 F               2         Platform horizontal surge translation DOF (internal DOF index = DOF_Sg), m
          2   -4.721E-01                                 F               2         Platform horizontal sway translation DOF (internal DOF index = DOF_Sw), m
          3   -1.143E-01                                 F               2         Platform vertical heave translation DOF (internal DOF index = DOF_Hv), m
          4    4.667E-02                                 F               2         Platform roll tilt rotation DOF (internal DOF index = DOF_R), rad
          5    8.560E-02                                 F               2         Platform pitch tilt rotation DOF (internal DOF index = DOF_P), rad
          6    2.718E-03                                 F               2         Platform yaw rotation DOF (internal DOF index = DOF_Y), rad
          7    4.678E-01                                 F               2         1st tower fore-aft bending mode DOF (internal DOF index = DOF_TFA1), m
          8    1.833E-01                                 F               2         1st tower side-to-side bending mode DOF (internal DOF index = DOF_TSS1), m
          9    1.461E-03                                 F               2         2nd tower fore-aft bending mode DOF (internal DOF index = DOF_TFA2), m
         10    8.166E-05                                 F               2         2nd tower side-to-side bending mode DOF (internal DOF index = DOF_TSS2), m
         11    4.482E+00                                 F               2         Variable speed generator DOF (internal DOF index = DOF_GeAz), rad
         12   -4.949E-03                                 F               2         First time derivative of Platform horizontal surge translation DOF (internal DOF index = DOF_Sg), m/s
         13    1.814E-03                                 F               2         First time derivative of Platform horizontal sway translation DOF (internal DOF index = DOF_Sw), m/s
         14    1.706E-03                                 F               2         First time derivative of Platform vertical heave translation DOF (internal DOF index = DOF_Hv), m/s
         15   -2.302E-04                                 F               2         First time derivative of Platform roll tilt rotation DOF (internal DOF index = DOF_R), rad/s
         16   -4.269E-06                                 F               2         First time derivative of Platform pitch tilt rotation DOF (internal DOF index = DOF_P), rad/s
         17    5.098E-05                                 F               2         First time derivative of Platform yaw rotation DOF (internal DOF index = DOF_Y), rad/s
         18   -1.900E-05                                 F               2         First time derivative of 1st tower fore-aft bending mode DOF (internal DOF index = DOF_TFA1), m/s
         19   -1.302E-03                                 F               2         First time derivative of 1st tower side-to-side bending mode DOF (internal DOF index = DOF_TSS1), m/s
         20   -1.001E-06                                 F               2         First time derivative of 2nd tower fore-aft bending mode DOF (internal DOF index = DOF_TFA2), m/s
         21   -7.438E-07                                 F               2         First time derivative of 2nd tower side-to-side bending mode DOF (internal DOF index = DOF_TSS2), m/s
         22    7.075E-01                                 F               2         First time derivative of Variable speed generator DOF (internal DOF index = DOF_GeAz), rad/s

Order of continuous state derivatives:
   Row/Column Operating Point                     Rotating Frame? Derivative Order Description
   ---------- ---------------                     --------------- ---------------- -----------
          1   -4.949E-03                                 F               2         First time derivative of Platform horizontal surge translation DOF (internal DOF index = DOF_Sg), m/s
          2    1.814E-03                                 F               2         First time derivative of Platform horizontal sway translation DOF (internal DOF index = DOF_Sw), m/s
          3    1.706E-03                                 F               2         First time derivative of Platform vertical heave translation DOF (internal DOF index = DOF_Hv), m/s
          4   -2.302E-04                                 F               2         First time derivative of Platform roll tilt rotation DOF (internal DOF index = DOF_R), rad/s
          5   -4.269E-06                                 F               2         First time derivative of Platform pitch tilt rotation DOF (internal DOF index = DOF_P), rad/s
          6    5.098E-05                                 F               2         First time derivative of Platform yaw rotation DOF (internal DOF index = DOF_Y), rad/s
          7   -1.900E-05                                 F               2         First time derivative of 1st tower fore-aft bending mode DOF (internal DOF index = DOF_TFA1), m/s
          8   -1.302E-03                                 F               2         First time derivative of 1st tower side-to-side bending mode DOF (internal DOF index = DOF_TSS1), m/s
          9   -1.001E-06                                 F               2         First time derivative of 2nd tower fore-aft bending mode DOF (internal DOF index = DOF_TFA2), m/s
         10   -7.438E-07                                 F               2         First time derivative of 2nd tower side-to-side bending mode DOF (internal DOF index = DOF_TSS2), m/s
         11    7.075E-01                                 F               2         First time derivative of Variable speed generator DOF (internal DOF index = DOF_GeAz), rad/s
         12   -9.163E-05                                 F               2         First time derivative of First time derivative of Platform horizontal surge translation DOF (internal DOF index = DOF_Sg), m/s/s
         13   -2.041E-05                                 F               2         First time derivative of First time derivative of Platform horizontal sway translation DOF (internal DOF index = DOF_Sw), m/s/s
         14    7.966E-04                                 F               2         First time derivative of First time derivative of Platform vertical heave translation DOF (internal DOF index = DOF_Hv), m/s/s
         15   -5.239E-05                                 F               2         First time derivative of First time derivative of Platform roll tilt rotation DOF (internal DOF index = DOF_R), rad/s/s
         16    9.036E-06                                 F               2         First time derivative of First time derivative of Platform pitch tilt rotation DOF (internal DOF index = DOF_P), rad/s/s
         17    1.061E-06                                 F               2         First time derivative of First time derivative of Platform yaw rotation DOF (internal DOF index = DOF_Y), rad/s/s
         18   -1.165E-03                                 F               2         First time derivative of First time derivative of 1st tower fore-aft bending mode DOF (internal DOF index = DOF_TFA1), m/s/s
         19   -5.499E-05                                 F               2         First time derivative of First time derivative of 1st tower side-to-side bending mode DOF (internal DOF index = DOF_TSS1), m/s/s
         20    6.802E-06                                 F               2         First time derivative of First time derivative of 2nd tower fore-aft bending mode DOF (internal DOF index = DOF_TFA2), m/s/s
         21    6.756E-07                                 F               2         First time derivative of First time derivative of 2nd tower side-to-side bending mode DOF (internal DOF index = DOF_TSS2), m/s/s
         22   -8.380E-05                                 F               2         First time derivative of First time derivative of Variable speed generator DOF (internal DOF index = DOF_GeAz), rad/s/s

Order of inputs:
     Column   Operating Point                     Rotating Frame? Derivative Order Description
   ---------- ---------------                     --------------- ---------------- -----------
          1    4.330E+01                                 F               0         Blade 1 X force, node 1, N
          2    4.341E+01                                 F               0         Blade 1 Y force, node 1, N
          3   -1.666E+01                                 F               0         Blade 1 Z force, node 1, N
          4    1.906E+02                                 F               0         Blade 1 X force, node 2, N
          5    8.576E+01                                 F               0         Blade 1 Y force, node 2, N
          6   -5.347E+01                                 F               0         Blade 1 Z force, node 2, N
          7    2.530E+02                                 F               0         Blade 1 X force, node 3, N
          8    5.011E+01                                 F               0         Blade 1 Y force, node 3, N
          9   -5.898E+01                                 F               0         Blade 1 Z force, node 3, N
         10    3.357E+02                                 F               0         Blade 1 X force, node 4, N
         11    2.467E+01                                 F               0         Blade 1 Y force, node 4, N
         12   -7.037E+01                                 F               0         Blade 1 Z force, node 4, N
         13    4.184E+02                                 F               0         Blade 1 X force, node 5, N
         14   -7.787E-01                                 F               0         Blade 1 Y force, node 5, N
         15   -8.176E+01                                 F               0         Blade 1 Z force, node 5, N
         16    5.011E+02                                 F               0         Blade 1 X force, node 6, N
         17   -2.622E+01                                 F               0         Blade 1 Y force, node 6, N
         18   -9.316E+01                                 F               0         Blade 1 Z force, node 6, N
         19    5.838E+02                                 F               0         Blade 1 X force, node 7, N
         20   -5.167E+01                                 F               0         Blade 1 Y force, node 7, N
         21   -1.045E+02                                 F               0         Blade 1 Z force, node 7, N
         22    6.665E+02                                 F               0         Blade 1 X force, node 8, N
         23   -7.712E+01                                 F               0         Blade 1 Y force, node 8, N
         24   -1.159E+02                                 F               0         Blade 1 Z force, node 8, N
         25    7.492E+02                                 F               0         Blade 1 X force, node 9, N
         26   -1.026E+02                                 F               0         Blade 1 Y force, node 9, N
         27   -1.273E+02                                 F               0         Blade 1 Z force, node 9, N
         28    8.319E+02                                 F               0         Blade 1 X force, node 10, N
         29   -1.280E+02                                 F               0         Blade 1 Y force, node 10, N
         30   -1.387E+02                                 F               0         Blade 1 Z force, node 10, N
         31    9.146E+02                                 F               0         Blade 1 X force, node 11, N
         32   -1.535E+02                                 F               0         Blade 1 Y force, node 11, N
         33   -1.501E+02                                 F               0         Blade 1 Z force, node 11, N
         34    9.973E+02                                 F               0         Blade 1 X force, node 12, N
         35   -1.789E+02                                 F               0         Blade 1 Y force, node 12, N
         36   -1.615E+02                                 F               0         Blade 1 Z force, node 12, N
         37    1.080E+03                                 F               0         Blade 1 X force, node 13, N
         38   -2.043E+02                                 F               0         Blade 1 Y force, node 13, N
         39   -1.729E+02                                 F               0         Blade 1 Z force, node 13, N
         40    1.163E+03                                 F               0         Blade 1 X force, node 14, N
         41   -2.298E+02                                 F               0         Blade 1 Y force, node 14, N
         42   -1.843E+02                                 F               0         Blade 1 Z force, node 14, N
         43    1.245E+03                                 F               0         Blade 1 X force, node 15, N
         44   -2.552E+02                                 F               0         Blade 1 Y force, node 15, N
         45   -1.957E+02                                 F               0         Blade 1 Z force, node 15, N
         46    1.328E+03                                 F               0         Blade 1 X force, node 16, N
         47   -2.807E+02                                 F               0         Blade 1 Y force, node 16, N
         48   -2.071E+02                                 F               0         Blade 1 Z force, node 16, N
         49    1.637E+03                                 F               0         Blade 1 X force, node 17, N
         50   -3.534E+02                                 F               0         Blade 1 Y force, node 17, N
         51   -2.537E+02                                 F               0         Blade 1 Z force, node 17, N
         52    1.255E+03                                 F               0         Blade 1 X force, node 18, N
         53   -2.606E+02                                 F               0         Blade 1 Y force, node 18, N
         54   -1.965E+02                                 F               0         Blade 1 Z force, node 18, N
         55    1.547E+03                                 F               0         Blade 1 X force, node 19, N
         56   -3.034E+02                                 F               0         Blade 1 Y force, node 19, N
         57   -2.456E+02                                 F               0         Blade 1 Z force, node 19, N
         58    1.324E+03                                 F               0         Blade 1 X force, node 20, N
         59   -2.457E+02                                 F               0         Blade 1 Y force, node 20, N
         60   -2.129E+02                                 F               0         Blade 1 Z force, node 20, N
         61    1.964E+03                                 F               0         Blade 1 X force, node 21, N
         62   -3.416E+02                                 F               0         Blade 1 Y force, node 21, N
         63   -3.201E+02                                 F               0         Blade 1 Z force, node 21, N
         64    1.741E+03                                 F               0         Blade 1 X force, node 22, N
         65   -2.835E+02                                 F               0         Blade 1 Y force, node 22, N
         66   -2.874E+02                                 F               0         Blade 1 Z force, node 22, N
         67    1.795E+03                                 F               0         Blade 1 X force, node 23, N
         68   -2.751E+02                                 F               0         Blade 1 Y force, node 23, N
         69   -2.996E+02                                 F               0         Blade 1 Z force, node 23, N
         70    1.881E+03                                 F               0         Blade 1 X force, node 24, N
         71   -2.713E+02                                 F               0         Blade 1 Y force, node 24, N
         72   -3.172E+02                                 F               0         Blade 1 Z force, node 24, N
         73    1.935E+03                                 F               0         Blade 1 X force, node 25, N
         74   -2.625E+02                                 F               0         Blade 1 Y force, node 25, N
         75   -3.292E+02                                 F               0         Blade 1 Z force, node 25, N
         76    1.999E+03                                 F               0         Blade 1 X force, node 26, N
         77   -2.552E+02                                 F               0         Blade 1 Y force, node 26, N
         78   -3.431E+02                                 F               0         Blade 1 Z force, node 26, N
         79    2.403E+03                                 F               0         Blade 1 X force, node 27, N
         80   -2.878E+02                                 F               0         Blade 1 Y force, node 27, N
         81   -4.161E+02                                 F               0         Blade 1 Z force, node 27, N
         82    1.786E+03                                 F               0         Blade 1 X force, node 28, N
         83   -2.008E+02                                 F               0         Blade 1 Y force, node 28, N
         84   -3.119E+02                                 F               0         Blade 1 Z force, node 28, N
         85    2.190E+03                                 F               0         Blade 1 X force, node 29, N
         86   -2.332E+02                                 F               0         Blade 1 Y force, node 29, N
         87   -3.848E+02                                 F               0         Blade 1 Z force, node 29, N
         88    1.868E+03                                 F               0         Blade 1 X force, node 30, N
         89   -1.884E+02                                 F               0         Blade 1 Y force, node 30, N
         90   -3.301E+02                                 F               0         Blade 1 Z force, node 30, N
         91    2.705E+03                                 F               0         Blade 1 X force, node 31, N
         92   -2.558E+02                                 F               0         Blade 1 Y force, node 31, N
         93   -4.813E+02                                 F               0         Blade 1 Z force, node 31, N
         94    2.382E+03                                 F               0         Blade 1 X force, node 32, N
         95   -2.108E+02                                 F               0         Blade 1 Y force, node 32, N
         96   -4.265E+02                                 F               0         Blade 1 Z force, node 32, N
         97    2.445E+03                                 F               0         Blade 1 X force, node 33, N
         98   -2.032E+02                                 F               0         Blade 1 Y force, node 33, N
         99   -4.404E+02                                 F               0         Blade 1 Z force, node 33, N
        100    2.509E+03                                 F               0         Blade 1 X force, node 34, N
        101   -1.957E+02                                 F               0         Blade 1 Y force, node 34, N
        102   -4.543E+02                                 F               0         Blade 1 Z force, node 34, N
        103    2.573E+03                                 F               0         Blade 1 X force, node 35, N
        104   -1.881E+02                                 F               0         Blade 1 Y force, node 35, N
        105   -4.682E+02                                 F               0         Blade 1 Z force, node 35, N
        106    2.636E+03                                 F               0         Blade 1 X force, node 36, N
        107   -1.805E+02                                 F               0         Blade 1 Y force, node 36, N
        108   -4.820E+02                                 F               0         Blade 1 Z force, node 36, N
        109    3.159E+03                                 F               0         Blade 1 X force, node 37, N
        110   -2.014E+02                                 F               0         Blade 1 Y force, node 37, N
        111   -5.805E+02                                 F               0         Blade 1 Z force, node 37, N
        112    2.305E+03                                 F               0         Blade 1 X force, node 38, N
        113   -1.367E+02                                 F               0         Blade 1 Y force, node 38, N
        114   -4.254E+02                                 F               0         Blade 1 Z force, node 38, N
        115    2.828E+03                                 F               0         Blade 1 X force, node 39, N
        116   -1.576E+02                                 F               0         Blade 1 Y force, node 39, N
        117   -5.239E+02                                 F               0         Blade 1 Z force, node 39, N
        118    2.414E+03                                 F               0         Blade 1 X force, node 40, N
        119   -1.262E+02                                 F               0         Blade 1 Y force, node 40, N
        120   -4.488E+02                                 F               0         Blade 1 Z force, node 40, N
        121    3.434E+03                                 F               0         Blade 1 X force, node 41, N
        122   -1.661E+02                                 F               0         Blade 1 Y force, node 41, N
        123   -6.409E+02                                 F               0         Blade 1 Z force, node 41, N
        124    3.019E+03                                 F               0         Blade 1 X force, node 42, N
        125   -1.346E+02                                 F               0         Blade 1 Y force, node 42, N
        126   -5.657E+02                                 F               0         Blade 1 Z force, node 42, N
        127    3.082E+03                                 F               0         Blade 1 X force, node 43, N
        128   -1.268E+02                                 F               0         Blade 1 Y force, node 43, N
        129   -5.795E+02                                 F               0         Blade 1 Z force, node 43, N
        130    3.162E+03                                 F               0         Blade 1 X force, node 44, N
        131   -1.197E+02                                 F               0         Blade 1 Y force, node 44, N
        132   -5.965E+02                                 F               0         Blade 1 Z force, node 44, N
        133    3.192E+03                                 F               0         Blade 1 X force, node 45, N
        134   -1.107E+02                                 F               0         Blade 1 Y force, node 45, N
        135   -6.040E+02                                 F               0         Blade 1 Z force, node 45, N
        136    3.272E+03                                 F               0         Blade 1 X force, node 46, N
        137   -1.036E+02                                 F               0         Blade 1 Y force, node 46, N
        138   -6.210E+02                                 F               0         Blade 1 Z force, node 46, N
        139    3.921E+03                                 F               0         Blade 1 X force, node 47, N
        140   -1.119E+02                                 F               0         Blade 1 Y force, node 47, N
        141   -7.464E+02                                 F               0         Blade 1 Z force, node 47, N
        142    2.813E+03                                 F               0         Blade 1 X force, node 48, N
        143   -7.195E+01                                 F               0         Blade 1 Y force, node 48, N
        144   -5.371E+02                                 F               0         Blade 1 Z force, node 48, N
        145    3.462E+03                                 F               0         Blade 1 X force, node 49, N
        146   -8.020E+01                                 F               0         Blade 1 Y force, node 49, N
        147   -6.625E+02                                 F               0         Blade 1 Z force, node 49, N
        148    2.964E+03                                 F               0         Blade 1 X force, node 50, N
        149   -6.168E+01                                 F               0         Blade 1 Y force, node 50, N
        150   -5.685E+02                                 F               0         Blade 1 Z force, node 50, N
        151    4.149E+03                                 F               0         Blade 1 X force, node 51, N
        152   -7.532E+01                                 F               0         Blade 1 Y force, node 51, N
        153   -7.979E+02                                 F               0         Blade 1 Z force, node 51, N
        154    3.652E+03                                 F               0         Blade 1 X force, node 52, N
        155   -5.686E+01                                 F               0         Blade 1 Y force, node 52, N
        156   -7.041E+02                                 F               0         Blade 1 Z force, node 52, N
        157    3.716E+03                                 F               0         Blade 1 X force, node 53, N
        158   -4.912E+01                                 F               0         Blade 1 Y force, node 53, N
        159   -7.181E+02                                 F               0         Blade 1 Z force, node 53, N
        160    3.821E+03                                 F               0         Blade 1 X force, node 54, N
        161   -4.180E+01                                 F               0         Blade 1 Y force, node 54, N
        162   -7.402E+02                                 F               0         Blade 1 Z force, node 54, N
        163    3.802E+03                                 F               0         Blade 1 X force, node 55, N
        164   -3.317E+01                                 F               0         Blade 1 Y force, node 55, N
        165   -7.380E+02                                 F               0         Blade 1 Z force, node 55, N
        166    3.907E+03                                 F               0         Blade 1 X force, node 56, N
        167   -2.580E+01                                 F               0         Blade 1 Y force, node 56, N
        168   -7.599E+02                                 F               0         Blade 1 Z force, node 56, N
        169    4.689E+03                                 F               0         Blade 1 X force, node 57, N
        170   -2.062E+01                                 F               0         Blade 1 Y force, node 57, N
        171   -9.140E+02                                 F               0         Blade 1 Z force, node 57, N
        172    3.315E+03                                 F               0         Blade 1 X force, node 58, N
        173   -7.611E+00                                 F               0         Blade 1 Y force, node 58, N
        174   -6.476E+02                                 F               0         Blade 1 Z force, node 58, N
        175    4.098E+03                                 F               0         Blade 1 X force, node 59, N
        176   -2.408E+00                                 F               0         Blade 1 Y force, node 59, N
        177   -8.017E+02                                 F               0         Blade 1 Z force, node 59, N
        178    3.524E+03                                 F               0         Blade 1 X force, node 60, N
        179    3.909E+00                                 F               0         Blade 1 Y force, node 60, N
        180   -6.906E+02                                 F               0         Blade 1 Z force, node 60, N
        181    4.862E+03                                 F               0         Blade 1 X force, node 61, N
        182    1.472E+01                                 F               0         Blade 1 Y force, node 61, N
        183   -9.545E+02                                 F               0         Blade 1 Z force, node 61, N
        184    4.287E+03                                 F               0         Blade 1 X force, node 62, N