
Linearized model: Predictions were generated on 12-Jan-2024 at 08:43:17 using OpenFAST, compiled as a 64-bit application using single precision at commit v3.5.1
 linked with  NWTC Subroutine Library; ElastoDyn; InflowWind; AeroDyn; ServoDyn; HydroDyn; MAP++ (<1.20.10>, <Oct-20-2023>)

Description from the FAST input file: CCT-9 Campign 4 model. Input files to be run with OpenFAST 3.5.0. GitHub branch from Lu Wang (https://github.com/luwang00/openfast/tree/dev) compiled on March 7, 2023.

Simulation information:
   Simulation time:                   504.9500 s
   Rotor Speed:                         0.7074 rad/s
   Azimuth:                             0.6359 rad
   Wind Speed:                          8.0000 m/s
   Number of continuous states:         0
   Number of discrete states:           0
   Number of constraint states:         0
   Number of inputs:                 1746
   Number of outputs:                   4
   Jacobians included in this file?    No

Order of inputs:
     Column   Operating Point                     Rotating Frame? Derivative Order Description
   ---------- ---------------                     --------------- ---------------- -----------
          1    7.324E+00                                 F               0         Tower X translation displacement, node 1, m
          2   -1.314E+00                                 F               0         Tower Y translation displacement, node 1, m
          3   -1.980E-01                                 F               0         Tower Z translation displacement, node 1, m
          4    8.384E+00                                 F               0         Tower X translation displacement, node 2, m
          5   -1.885E+00                                 F               0         Tower Y translation displacement, node 2, m
          6   -2.567E-01                                 F               0         Tower Z translation displacement, node 2, m
          7    9.460E+00                                 F               0         Tower X translation displacement, node 3, m
          8   -2.461E+00                                 F               0         Tower Y translation displacement, node 3, m
          9   -3.172E-01                                 F               0         Tower Z translation displacement, node 3, m
         10    1.055E+01                                 F               0         Tower X translation displacement, node 4, m
         11   -3.041E+00                                 F               0         Tower Y translation displacement, node 4, m
         12   -3.788E-01                                 F               0         Tower Z translation displacement, node 4, m
         13    1.164E+01                                 F               0         Tower X translation displacement, node 5, m
         14   -3.626E+00                                 F               0         Tower Y translation displacement, node 5, m
         15   -4.415E-01                                 F               0         Tower Z translation displacement, node 5, m
         16    1.275E+01                                 F               0         Tower X translation displacement, node 6, m
         17   -4.213E+00                                 F               0         Tower Y translation displacement, node 6, m
         18   -5.050E-01                                 F               0         Tower Z translation displacement, node 6, m
         19    1.386E+01                                 F               0         Tower X translation displacement, node 7, m
         20   -4.803E+00                                 F               0         Tower Y translation displacement, node 7, m
         21   -5.691E-01                                 F               0         Tower Z translation displacement, node 7, m
         22    1.497E+01                                 F               0         Tower X translation displacement, node 8, m
         23   -5.395E+00                                 F               0         Tower Y translation displacement, node 8, m
         24   -6.336E-01                                 F               0         Tower Z translation displacement, node 8, m
         25    1.609E+01                                 F               0         Tower X translation displacement, node 9, m
         26   -5.988E+00                                 F               0         Tower Y translation displacement, node 9, m
         27   -6.985E-01                                 F               0         Tower Z translation displacement, node 9, m
         28    1.721E+01                                 F               0         Tower X translation displacement, node 10, m
         29   -6.583E+00                                 F               0         Tower Y translation displacement, node 10, m
         30   -7.636E-01                                 F               0         Tower Z translation displacement, node 10, m
         31    1.833E+01                                 F               0         Tower X translation displacement, node 11, m
         32   -7.178E+00                                 F               0         Tower Y translation displacement, node 11, m
         33   -8.288E-01                                 F               0         Tower Z translation displacement, node 11, m
         34    9.964E-01,  4.738E-03, -8.514E-02         F               0         Tower X orientation angle, node 1, rad
         35   -7.983E-04,  9.989E-01,  4.625E-02         F               0         Tower Y orientation angle, node 1, rad
         36    8.526E-02, -4.602E-02,  9.953E-01         F               0         Tower Z orientation angle, node 1, rad
         37    9.963E-01,  4.795E-03, -8.636E-02         F               0         Tower X orientation angle, node 2, rad
         38   -7.620E-04,  9.989E-01,  4.667E-02         F               0         Tower Y orientation angle, node 2, rad
         39    8.648E-02, -4.643E-02,  9.952E-01         F               0         Tower Z orientation angle, node 2, rad
         40    9.962E-01,  4.844E-03, -8.741E-02         F               0         Tower X orientation angle, node 3, rad
         41   -7.290E-04,  9.989E-01,  4.705E-02         F               0         Tower Y orientation angle, node 3, rad
         42    8.754E-02, -4.681E-02,  9.951E-01         F               0         Tower Z orientation angle, node 3, rad
         43    9.961E-01,  4.885E-03, -8.827E-02         F               0         Tower X orientation angle, node 4, rad
         44   -6.999E-04,  9.989E-01,  4.738E-02         F               0         Tower Y orientation angle, node 4, rad
         45    8.840E-02, -4.713E-02,  9.950E-01         F               0         Tower Z orientation angle, node 4, rad
         46    9.960E-01,  4.918E-03, -8.896E-02         F               0         Tower X orientation angle, node 5, rad
         47   -6.747E-04,  9.989E-01,  4.766E-02         F               0         Tower Y orientation angle, node 5, rad
         48    8.910E-02, -4.741E-02,  9.949E-01         F               0         Tower Z orientation angle, node 5, rad
         49    9.960E-01,  4.943E-03, -8.949E-02         F               0         Tower X orientation angle, node 6, rad
         50   -6.536E-04,  9.989E-01,  4.790E-02         F               0         Tower Y orientation angle, node 6, rad
         51    8.963E-02, -4.765E-02,  9.948E-01         F               0         Tower Z orientation angle, node 6, rad
         52    9.959E-01,  4.961E-03, -8.987E-02         F               0         Tower X orientation angle, node 7, rad
         53   -6.366E-04,  9.988E-01,  4.809E-02         F               0         Tower Y orientation angle, node 7, rad
         54    9.000E-02, -4.784E-02,  9.948E-01         F               0         Tower Z orientation angle, node 7, rad
         55    9.959E-01,  4.974E-03, -9.013E-02         F               0         Tower X orientation angle, node 8, rad
         56   -6.233E-04,  9.988E-01,  4.824E-02         F               0         Tower Y orientation angle, node 8, rad
         57    9.026E-02, -4.798E-02,  9.948E-01         F               0         Tower Z orientation angle, node 8, rad
         58    9.959E-01,  4.982E-03, -9.029E-02         F               0         Tower X orientation angle, node 9, rad
         59   -6.137E-04,  9.988E-01,  4.834E-02         F               0         Tower Y orientation angle, node 9, rad
         60    9.043E-02, -4.809E-02,  9.947E-01         F               0         Tower Z orientation angle, node 9, rad
         61    9.959E-01,  4.987E-03, -9.039E-02         F               0         Tower X orientation angle, node 10, rad
         62   -6.073E-04,  9.988E-01,  4.841E-02         F               0         Tower Y orientation angle, node 10, rad
         63    9.052E-02, -4.816E-02,  9.947E-01         F               0         Tower Z orientation angle, node 10, rad
         64    9.959E-01,  4.989E-03, -9.043E-02         F               0         Tower X orientation angle, node 11, rad
         65   -6.039E-04,  9.988E-01,  4.845E-02         F               0         Tower Y orientation angle, node 11, rad
         66    9.056E-02, -4.820E-02,  9.947E-01         F               0         Tower Z orientation angle, node 11, rad
         67   -5.032E-03                                 F               0         Tower X translation velocity, node 1, m/s
         68    6.892E-03                                 F               0         Tower Y translation velocity, node 1, m/s
         69    2.830E-03                                 F               0         Tower Z translation velocity, node 1, m/s
         70   -4.980E-03                                 F               0         Tower X translation velocity, node 2, m/s
         71    1.042E-02                                 F               0         Tower Y translation velocity, node 2, m/s
         72    2.989E-03                                 F               0         Tower Z translation velocity, node 2, m/s
         73   -4.930E-03                                 F               0         Tower X translation velocity, node 3, m/s
         74    1.399E-02                                 F               0         Tower Y translation velocity, node 3, m/s
         75    3.152E-03                                 F               0         Tower Z translation velocity, node 3, m/s
         76   -4.882E-03                                 F               0         Tower X translation velocity, node 4, m/s
         77    1.760E-02                                 F               0         Tower Y translation velocity, node 4, m/s
         78    3.319E-03                                 F               0         Tower Z translation velocity, node 4, m/s
         79   -4.836E-03                                 F               0         Tower X translation velocity, node 5, m/s
         80    2.124E-02                                 F               0         Tower Y translation velocity, node 5, m/s
         81    3.487E-03                                 F               0         Tower Z translation velocity, node 5, m/s
         82   -4.790E-03                                 F               0         Tower X translation velocity, node 6, m/s
         83    2.491E-02                                 F               0         Tower Y translation velocity, node 6, m/s
         84    3.659E-03                                 F               0         Tower Z translation velocity, node 6, m/s
         85   -4.745E-03                                 F               0         Tower X translation velocity, node 7, m/s
         86    2.860E-02                                 F               0         Tower Y translation velocity, node 7, m/s
         87    3.831E-03                                 F               0         Tower Z translation velocity, node 7, m/s
         88   -4.701E-03                                 F               0         Tower X translation velocity, node 8, m/s
         89    3.230E-02                                 F               0         Tower Y translation velocity, node 8, m/s
         90    4.006E-03                                 F               0         Tower Z translation velocity, node 8, m/s
         91   -4.656E-03                                 F               0         Tower X translation velocity, node 9, m/s
         92    3.602E-02                                 F               0         Tower Y translation velocity, node 9, m/s
         93    4.181E-03                                 F               0         Tower Z translation velocity, node 9, m/s
         94   -4.612E-03                                 F               0         Tower X translation velocity, node 10, m/s
         95    3.974E-02                                 F               0         Tower Y translation velocity, node 10, m/s
         96    4.358E-03                                 F               0         Tower Z translation velocity, node 10, m/s
         97   -4.568E-03                                 F               0         Tower X translation velocity, node 11, m/s
         98    4.347E-02                                 F               0         Tower Y translation velocity, node 11, m/s
         99    4.534E-03                                 F               0         Tower Z translation velocity, node 11, m/s
        100    1.908E+01                                 F               0         Hub X translation displacement, node 1, m
        101   -7.611E+00                                 F               0         Hub Y translation displacement, node 1, m
        102    1.065E-01                                 F               0         Hub Z translation displacement, node 1, m
        103    9.810E-01,  1.000E-02, -1.939E-01         F               0         Hub X orientation angle, node 1, rad
        104    1.148E-01,  7.754E-01,  6.209E-01         F               0         Hub Y orientation angle, node 1, rad
        105    1.566E-01, -6.314E-01,  7.595E-01         F               0         Hub Z orientation angle, node 1, rad
        106    6.937E-01                                 F               0         Hub X rotation velocity, node 1, rad/s
        107    7.075E-03                                 F               0         Hub Y rotation velocity, node 1, rad/s
        108   -1.371E-01                                 F               0         Hub Z rotation velocity, node 1, rad/s
        109    9.771E-01, -1.301E-02, -2.122E-01         F               0         Blade root 1 X orientation angle, node 1, rad
        110    1.439E-01,  7.754E-01,  6.149E-01         F               0         Blade root 1 Y orientation angle, node 1, rad
        111    1.566E-01, -6.314E-01,  7.595E-01         F               0         Blade root 1 Z orientation angle, node 1, rad
        112    9.782E-01,  3.772E-02, -2.041E-01         F               0         Blade root 2 X orientation angle, node 1, rad
        113    1.072E-01, -9.338E-01,  3.414E-01         F               0         Blade root 2 Y orientation angle, node 1, rad
        114   -1.777E-01, -3.558E-01, -9.175E-01         F               0         Blade root 2 Z orientation angle, node 1, rad
        115    9.863E-01,  5.276E-03, -1.651E-01         F               0         Blade root 3 X orientation angle, node 1, rad
        116   -1.638E-01,  1.593E-01, -9.735E-01         F               0         Blade root 3 Y orientation angle, node 1, rad
        117    2.117E-02,  9.872E-01,  1.580E-01         F               0         Blade root 3 Z orientation angle, node 1, rad
        118    1.937E+01                                 F               0         Blade 1 X translation displacement, node 1, m
        119   -1.111E+01                                 F               0         Blade 1 Y translation displacement, node 1, m
        120   -1.196E+00                                 F               0         Blade 1 Z translation displacement, node 1, m
        121    1.944E+01                                 F               0         Blade 1 X translation displacement, node 2, m
        122   -1.195E+01                                 F               0         Blade 1 Y translation displacement, node 2, m
        123   -1.509E+00                                 F               0         Blade 1 Z translation displacement, node 2, m
        124    2.038E+01                                 F               0         Blade 1 X translation displacement, node 3, m
        125   -2.341E+01                                 F               0         Blade 1 Y translation displacement, node 3, m
        126   -5.775E+00                                 F               0         Blade 1 Z translation displacement, node 3, m
        127    2.058E+01                                 F               0         Blade 1 X translation displacement, node 4, m
        128   -2.585E+01                                 F               0         Blade 1 Y translation displacement, node 4, m
        129   -6.684E+00                                 F               0         Blade 1 Z translation displacement, node 4, m
        130    2.079E+01                                 F               0         Blade 1 X translation displacement, node 5, m
        131   -2.830E+01                                 F               0         Blade 1 Y translation displacement, node 5, m
        132   -7.593E+00                                 F               0         Blade 1 Z translation displacement, node 5, m
        133    2.099E+01                                 F               0         Blade 1 X translation displacement, node 6, m
        134   -3.074E+01                                 F               0         Blade 1 Y translation displacement, node 6, m
        135   -8.502E+00                                 F               0         Blade 1 Z translation displacement, node 6, m
        136    2.119E+01                                 F               0         Blade 1 X translation displacement, node 7, m
        137   -3.318E+01                                 F               0         Blade 1 Y translation displacement, node 7, m
        138   -9.411E+00                                 F               0         Blade 1 Z translation displacement, node 7, m
        139    2.139E+01                                 F               0         Blade 1 X translation displacement, node 8, m
        140   -3.562E+01                                 F               0         Blade 1 Y translation displacement, node 8, m
        141   -1.032E+01                                 F               0         Blade 1 Z translation displacement, node 8, m
        142    2.159E+01                                 F               0         Blade 1 X translation displacement, node 9, m
        143   -3.806E+01                                 F               0         Blade 1 Y translation displacement, node 9, m
        144   -1.123E+01                                 F               0         Blade 1 Z translation displacement, node 9, m
        145    2.179E+01                                 F               0         Blade 1 X translation displacement, node 10, m
        146   -4.051E+01                                 F               0         Blade 1 Y translation displacement, node 10, m
        147   -1.214E+01                                 F               0         Blade 1 Z translation displacement, node 10, m
        148    2.199E+01                                 F               0         Blade 1 X translation displacement, node 11, m
        149   -4.295E+01                                 F               0         Blade 1 Y translation displacement, node 11, m
        150   -1.305E+01                                 F               0         Blade 1 Z translation displacement, node 11, m
        151    2.219E+01                                 F               0         Blade 1 X translation displacement, node 12, m
        152   -4.539E+01                                 F               0         Blade 1 Y translation displacement, node 12, m
        153   -1.396E+01                                 F               0         Blade 1 Z translation displacement, node 12, m
        154    2.240E+01                                 F               0         Blade 1 X translation displacement, node 13, m
        155   -4.783E+01                                 F               0         Blade 1 Y translation displacement, node 13, m
        156   -1.487E+01                                 F               0         Blade 1 Z translation displacement, node 13, m
        157    2.260E+01                                 F               0         Blade 1 X translation displacement, node 14, m
        158   -5.027E+01                                 F               0         Blade 1 Y translation displacement, node 14, m
        159   -1.577E+01                                 F               0         Blade 1 Z translation displacement, node 14, m
        160    2.280E+01                                 F               0         Blade 1 X translation displacement, node 15, m
        161   -5.272E+01                                 F               0         Blade 1 Y translation displacement, node 15, m
        162   -1.668E+01                                 F               0         Blade 1 Z translation displacement, node 15, m
        163    2.300E+01                                 F               0         Blade 1 X translation displacement, node 16, m
        164   -5.516E+01                                 F               0         Blade 1 Y translation displacement, node 16, m
        165   -1.759E+01                                 F               0         Blade 1 Z translation displacement, node 16, m
        166    2.320E+01                                 F               0         Blade 1 X translation displacement, node 17, m
        167   -5.760E+01                                 F               0         Blade 1 Y translation displacement, node 17, m
        168   -1.850E+01                                 F               0         Blade 1 Z translation displacement, node 17, m
        169    2.340E+01                                 F               0         Blade 1 X translation displacement, node 18, m
        170   -6.004E+01                                 F               0         Blade 1 Y translation displacement, node 18, m
        171   -1.941E+01                                 F               0         Blade 1 Z translation displacement, node 18, m
        172    2.360E+01                                 F               0         Blade 1 X translation displacement, node 19, m
        173   -6.248E+01                                 F               0         Blade 1 Y translation displacement, node 19, m
        174   -2.032E+01                                 F               0         Blade 1 Z translation displacement, node 19, m
        175    2.381E+01                                 F               0         Blade 1 X translation displacement, node 20, m
        176   -6.493E+01                                 F               0         Blade 1 Y translation displacement, node 20, m
        177   -2.123E+01                                 F               0         Blade 1 Z translation displacement, node 20, m
        178    2.401E+01                                 F               0         Blade 1 X translation displacement, node 21, m
        179   -6.737E+01                                 F               0         Blade 1 Y translation displacement, node 21, m
        180   -2.214E+01                                 F               0         Blade 1 Z translation displacement, node 21, m
        181    2.421E+01                                 F               0         Blade 1 X translation displacement, node 22, m
        182   -6.981E+01                                 F               0         Blade 1 Y translation displacement, node 22, m
        183   -2.305E+01                                 F               0         Blade 1 Z translation displacement, node 22, m
        184    2.441E+01                                 F               0         Blade 1 X translation displacement, node 23, m
        185   -7.225E+01                                 F               0         Blade 1 Y translation displacement, node 23, m
        186   -2.396E+01                                 F               0         Blade 1 Z translation displacement, node 23, m
        187    2.461E+01                                 F               0         Blade 1 X translation displacement, node 24, m
        188   -7.469E+01                                 F               0         Blade 1 Y translation displacement, node 24, m
        189   -2.486E+01                                 F               0         Blade 1 Z translation displacement, node 24, m
        190    2.481E+01                                 F               0         Blade 1 X translation displacement, node 25, m
        191   -7.714E+01                                 F               0         Blade 1 Y translation displacement, node 25, m
        192   -2.577E+01                                 F               0         Blade 1 Z translation displacement, node 25, m
        193    2.501E+01                                 F               0         Blade 1 X translation displacement, node 26, m
        194   -7.958E+01                                 F               0         Blade 1 Y translation displacement, node 26, m
        195   -2.668E+01                                 F               0         Blade 1 Z translation displacement, node 26, m
        196    2.521E+01                                 F               0         Blade 1 X translation displacement, node 27, m
        197   -8.202E+01                                 F               0         Blade 1 Y translation displacement, node 27, m
        198   -2.759E+01                                 F               0         Blade 1 Z translation displacement, node 27, m
        199    2.538E+01                                 F               0         Blade 1 X translation displacement, node 28, m
        200   -8.409E+01                                 F               0         Blade 1 Y translation displacement, node 28, m
        201   -2.836E+01                                 F               0         Blade 1 Z translation displacement, node 28, m
        202    8.040E-01, -3.652E-01, -4.693E-01         F               0         Blade 1 X orientation angle, node 1, rad
        203    5.736E-01,  6.841E-01,  4.505E-01         F               0         Blade 1 Y orientation angle, node 1, rad
        204    1.566E-01, -6.314E-01,  7.595E-01         F               0         Blade 1 Z orientation angle, node 1, rad
        205    8.040E-01, -3.652E-01, -4.693E-01         F               0         Blade 1 X orientation angle, node 2, rad
        206    5.736E-01,  6.841E-01,  4.505E-01         F               0         Blade 1 Y orientation angle, node 2, rad
        207    1.566E-01, -6.314E-01,  7.595E-01         F               0         Blade 1 Z orientation angle, node 2, rad
        208    9.171E-01, -1.926E-01, -3.492E-01         F               0         Blade 1 X orientation angle, node 3, rad
        209    3.667E-01,  7.512E-01,  5.489E-01         F               0         Blade 1 Y orientation angle, node 3, rad
        210    1.566E-01, -6.314E-01,  7.595E-01         F               0         Blade 1 Z orientation angle, node 3, rad
        211    9.317E-01, -1.607E-01, -3.257E-01         F               0         Blade 1 X orientation angle, node 4, rad
        212    3.277E-01,  7.586E-01,  5.631E-01         F               0         Blade 1 Y orientation angle, node 4, rad
        213    1.566E-01, -6.314E-01,  7.595E-01         F               0         Blade 1 Z orientation angle, node 4, rad
        214    9.421E-01, -1.355E-01, -3.068E-01         F               0         Blade 1 X orientation angle, node 5, rad
        215    2.966E-01,  7.635E-01,  5.736E-01         F               0         Blade 1 Y orientation angle, node 5, rad
        216    1.566E-01, -6.314E-01,  7.595E-01         F               0         Blade 1 Z orientation angle, node 5, rad
        217    9.496E-01, -1.152E-01, -2.915E-01         F               0         Blade 1 X orientation angle, node 6, rad
        218    2.715E-01,  7.669E-01,  5.815E-01         F               0         Blade 1 Y orientation angle, node 6, rad
        219    1.566E-01, -6.314E-01,  7.595E-01         F               0         Blade 1 Z orientation angle, node 6, rad
        220    9.553E-01, -9.842E-02, -2.787E-01         F               0         Blade 1 X orientation angle, node 7, rad
        221    2.507E-01,  7.692E-01,  5.878E-01         F               0         Blade 1 Y orientation angle, node 7, rad
        222    1.566E-01, -6.314E-01,  7.595E-01         F               0         Blade 1 Z orientation angle, node 7, rad
        223    9.597E-01, -8.444E-02, -2.680E-01         F               0         Blade 1 X orientation angle, node 8, rad
        224    2.334E-01,  7.709E-01,  5.927E-01         F               0         Blade 1 Y orientation angle, node 8, rad
        225    1.566E-01, -6.314E-01,  7.595E-01         F               0         Blade 1 Z orientation angle, node 8, rad
        226    9.632E-01, -7.259E-02, -2.589E-01         F               0         Blade 1 X orientation angle, node 9, rad
        227    2.186E-01,  7.721E-01,  5.968E-01         F               0         Blade 1 Y orientation angle, node 9, rad