
Linearized model: Predictions were generated on 12-Jan-2024 at 08:43:17 using OpenFAST, compiled as a 64-bit application using single precision at commit v3.5.1
 linked with  NWTC Subroutine Library; ElastoDyn; InflowWind; AeroDyn; ServoDyn; HydroDyn; MAP++ (<1.20.10>, <Oct-20-2023>)

Description from the FAST input file: CCT-9 Campign 4 model. Input files to be run with OpenFAST 3.5.0. GitHub branch from Lu Wang (https://github.com/luwang00/openfast/tree/dev) compiled on March 7, 2023.

Simulation information:
   Simulation time:                   503.4750 s
   Rotor Speed:                         0.7075 rad/s
   Azimuth:                             5.8756 rad
   Wind Speed:                          8.0000 m/s
   Number of continuous states:         0
   Number of discrete states:           0
   Number of constraint states:         0
   Number of inputs:                  303
   Number of outputs:                   1
   Jacobians included in this file?    No

Order of inputs:
     Column   Operating Point                     Rotating Frame? Derivative Order Description
   ---------- ---------------                     --------------- ---------------- -----------
          1   -1.080E+01                                 F               0         X-component position of node 1 (hub), m
          2    0.000E+00                                 F               0         Y-component position of node 1 (hub), m
          3    1.497E+02                                 F               0         Z-component position of node 1 (hub), m
          4    9.275E+00                                 F               0         X-component position of node 2 (blade 1, node 1), m
          5   -5.721E+00                                 F               0         Y-component position of node 2 (blade 1, node 1), m
          6    1.549E+02                                 F               0         Z-component position of node 2 (blade 1, node 1), m
          7    9.512E+00                                 F               0         X-component position of node 3 (blade 1, node 2), m
          8   -5.251E+00                                 F               0         Y-component position of node 3 (blade 1, node 2), m
          9    1.562E+02                                 F               0         Z-component position of node 3 (blade 1, node 2), m
         10    1.274E+01                                 F               0         X-component position of node 4 (blade 1, node 3), m
         11    1.139E+00                                 F               0         Y-component position of node 4 (blade 1, node 3), m
         12    1.728E+02                                 F               0         Z-component position of node 4 (blade 1, node 3), m
         13    1.343E+01                                 F               0         X-component position of node 5 (blade 1, node 4), m
         14    2.501E+00                                 F               0         Y-component position of node 5 (blade 1, node 4), m
         15    1.764E+02                                 F               0         Z-component position of node 5 (blade 1, node 4), m
         16    1.412E+01                                 F               0         X-component position of node 6 (blade 1, node 5), m
         17    3.862E+00                                 F               0         Y-component position of node 6 (blade 1, node 5), m
         18    1.799E+02                                 F               0         Z-component position of node 6 (blade 1, node 5), m
         19    1.481E+01                                 F               0         X-component position of node 7 (blade 1, node 6), m
         20    5.224E+00                                 F               0         Y-component position of node 7 (blade 1, node 6), m
         21    1.835E+02                                 F               0         Z-component position of node 7 (blade 1, node 6), m
         22    1.550E+01                                 F               0         X-component position of node 8 (blade 1, node 7), m
         23    6.585E+00                                 F               0         Y-component position of node 8 (blade 1, node 7), m
         24    1.871E+02                                 F               0         Z-component position of node 8 (blade 1, node 7), m
         25    1.619E+01                                 F               0         X-component position of node 9 (blade 1, node 8), m
         26    7.947E+00                                 F               0         Y-component position of node 9 (blade 1, node 8), m
         27    1.906E+02                                 F               0         Z-component position of node 9 (blade 1, node 8), m
         28    1.688E+01                                 F               0         X-component position of node 10 (blade 1, node 9), m
         29    9.308E+00                                 F               0         Y-component position of node 10 (blade 1, node 9), m
         30    1.942E+02                                 F               0         Z-component position of node 10 (blade 1, node 9), m
         31    1.757E+01                                 F               0         X-component position of node 11 (blade 1, node 10), m
         32    1.067E+01                                 F               0         Y-component position of node 11 (blade 1, node 10), m
         33    1.977E+02                                 F               0         Z-component position of node 11 (blade 1, node 10), m
         34    1.825E+01                                 F               0         X-component position of node 12 (blade 1, node 11), m
         35    1.203E+01                                 F               0         Y-component position of node 12 (blade 1, node 11), m
         36    2.013E+02                                 F               0         Z-component position of node 12 (blade 1, node 11), m
         37    1.894E+01                                 F               0         X-component position of node 13 (blade 1, node 12), m
         38    1.339E+01                                 F               0         Y-component position of node 13 (blade 1, node 12), m
         39    2.048E+02                                 F               0         Z-component position of node 13 (blade 1, node 12), m
         40    1.963E+01                                 F               0         X-component position of node 14 (blade 1, node 13), m
         41    1.475E+01                                 F               0         Y-component position of node 14 (blade 1, node 13), m
         42    2.084E+02                                 F               0         Z-component position of node 14 (blade 1, node 13), m
         43    2.032E+01                                 F               0         X-component position of node 15 (blade 1, node 14), m
         44    1.612E+01                                 F               0         Y-component position of node 15 (blade 1, node 14), m
         45    2.119E+02                                 F               0         Z-component position of node 15 (blade 1, node 14), m
         46    2.101E+01                                 F               0         X-component position of node 16 (blade 1, node 15), m
         47    1.748E+01                                 F               0         Y-component position of node 16 (blade 1, node 15), m
         48    2.155E+02                                 F               0         Z-component position of node 16 (blade 1, node 15), m
         49    2.170E+01                                 F               0         X-component position of node 17 (blade 1, node 16), m
         50    1.884E+01                                 F               0         Y-component position of node 17 (blade 1, node 16), m
         51    2.190E+02                                 F               0         Z-component position of node 17 (blade 1, node 16), m
         52    2.239E+01                                 F               0         X-component position of node 18 (blade 1, node 17), m
         53    2.020E+01                                 F               0         Y-component position of node 18 (blade 1, node 17), m
         54    2.226E+02                                 F               0         Z-component position of node 18 (blade 1, node 17), m
         55    2.307E+01                                 F               0         X-component position of node 19 (blade 1, node 18), m
         56    2.156E+01                                 F               0         Y-component position of node 19 (blade 1, node 18), m
         57    2.261E+02                                 F               0         Z-component position of node 19 (blade 1, node 18), m
         58    2.376E+01                                 F               0         X-component position of node 20 (blade 1, node 19), m
         59    2.292E+01                                 F               0         Y-component position of node 20 (blade 1, node 19), m
         60    2.297E+02                                 F               0         Z-component position of node 20 (blade 1, node 19), m
         61    2.445E+01                                 F               0         X-component position of node 21 (blade 1, node 20), m
         62    2.428E+01                                 F               0         Y-component position of node 21 (blade 1, node 20), m
         63    2.333E+02                                 F               0         Z-component position of node 21 (blade 1, node 20), m
         64    2.514E+01                                 F               0         X-component position of node 22 (blade 1, node 21), m
         65    2.565E+01                                 F               0         Y-component position of node 22 (blade 1, node 21), m
         66    2.368E+02                                 F               0         Z-component position of node 22 (blade 1, node 21), m
         67    2.583E+01                                 F               0         X-component position of node 23 (blade 1, node 22), m
         68    2.701E+01                                 F               0         Y-component position of node 23 (blade 1, node 22), m
         69    2.404E+02                                 F               0         Z-component position of node 23 (blade 1, node 22), m
         70    2.652E+01                                 F               0         X-component position of node 24 (blade 1, node 23), m
         71    2.837E+01                                 F               0         Y-component position of node 24 (blade 1, node 23), m
         72    2.439E+02                                 F               0         Z-component position of node 24 (blade 1, node 23), m
         73    2.721E+01                                 F               0         X-component position of node 25 (blade 1, node 24), m
         74    2.973E+01                                 F               0         Y-component position of node 25 (blade 1, node 24), m
         75    2.475E+02                                 F               0         Z-component position of node 25 (blade 1, node 24), m
         76    2.790E+01                                 F               0         X-component position of node 26 (blade 1, node 25), m
         77    3.109E+01                                 F               0         Y-component position of node 26 (blade 1, node 25), m
         78    2.510E+02                                 F               0         Z-component position of node 26 (blade 1, node 25), m
         79    2.858E+01                                 F               0         X-component position of node 27 (blade 1, node 26), m
         80    3.245E+01                                 F               0         Y-component position of node 27 (blade 1, node 26), m
         81    2.546E+02                                 F               0         Z-component position of node 27 (blade 1, node 26), m
         82    2.927E+01                                 F               0         X-component position of node 28 (blade 1, node 27), m
         83    3.381E+01                                 F               0         Y-component position of node 28 (blade 1, node 27), m
         84    2.581E+02                                 F               0         Z-component position of node 28 (blade 1, node 27), m
         85    2.986E+01                                 F               0         X-component position of node 29 (blade 1, node 28), m
         86    3.497E+01                                 F               0         Y-component position of node 29 (blade 1, node 28), m
         87    2.611E+02                                 F               0         Z-component position of node 29 (blade 1, node 28), m
         88    8.166E+00                                 F               0         X-component position of node 30 (blade 2, node 1), m
         89   -1.314E+01                                 F               0         Y-component position of node 30 (blade 2, node 1), m
         90    1.489E+02                                 F               0         Z-component position of node 30 (blade 2, node 1), m
         91    8.137E+00                                 F               0         X-component position of node 31 (blade 2, node 2), m
         92   -1.445E+01                                 F               0         Y-component position of node 31 (blade 2, node 2), m
         93    1.487E+02                                 F               0         Z-component position of node 31 (blade 2, node 2), m
         94    7.738E+00                                 F               0         X-component position of node 32 (blade 2, node 3), m
         95   -3.236E+01                                 F               0         Y-component position of node 32 (blade 2, node 3), m
         96    1.458E+02                                 F               0         Z-component position of node 32 (blade 2, node 3), m
         97    7.653E+00                                 F               0         X-component position of node 33 (blade 2, node 4), m
         98   -3.618E+01                                 F               0         Y-component position of node 33 (blade 2, node 4), m
         99    1.452E+02                                 F               0         Z-component position of node 33 (blade 2, node 4), m
        100    7.568E+00                                 F               0         X-component position of node 34 (blade 2, node 5), m
        101   -3.999E+01                                 F               0         Y-component position of node 34 (blade 2, node 5), m
        102    1.445E+02                                 F               0         Z-component position of node 34 (blade 2, node 5), m
        103    7.483E+00                                 F               0         X-component position of node 35 (blade 2, node 6), m
        104   -4.381E+01                                 F               0         Y-component position of node 35 (blade 2, node 6), m
        105    1.439E+02                                 F               0         Z-component position of node 35 (blade 2, node 6), m
        106    7.398E+00                                 F               0         X-component position of node 36 (blade 2, node 7), m
        107   -4.762E+01                                 F               0         Y-component position of node 36 (blade 2, node 7), m
        108    1.433E+02                                 F               0         Z-component position of node 36 (blade 2, node 7), m
        109    7.313E+00                                 F               0         X-component position of node 37 (blade 2, node 8), m
        110   -5.144E+01                                 F               0         Y-component position of node 37 (blade 2, node 8), m
        111    1.427E+02                                 F               0         Z-component position of node 37 (blade 2, node 8), m
        112    7.228E+00                                 F               0         X-component position of node 38 (blade 2, node 9), m
        113   -5.526E+01                                 F               0         Y-component position of node 38 (blade 2, node 9), m
        114    1.420E+02                                 F               0         Z-component position of node 38 (blade 2, node 9), m
        115    7.143E+00                                 F               0         X-component position of node 39 (blade 2, node 10), m
        116   -5.907E+01                                 F               0         Y-component position of node 39 (blade 2, node 10), m
        117    1.414E+02                                 F               0         Z-component position of node 39 (blade 2, node 10), m
        118    7.058E+00                                 F               0         X-component position of node 40 (blade 2, node 11), m
        119   -6.289E+01                                 F               0         Y-component position of node 40 (blade 2, node 11), m
        120    1.408E+02                                 F               0         Z-component position of node 40 (blade 2, node 11), m
        121    6.973E+00                                 F               0         X-component position of node 41 (blade 2, node 12), m
        122   -6.670E+01                                 F               0         Y-component position of node 41 (blade 2, node 12), m
        123    1.402E+02                                 F               0         Z-component position of node 41 (blade 2, node 12), m
        124    6.888E+00                                 F               0         X-component position of node 42 (blade 2, node 13), m
        125   -7.052E+01                                 F               0         Y-component position of node 42 (blade 2, node 13), m
        126    1.395E+02                                 F               0         Z-component position of node 42 (blade 2, node 13), m
        127    6.803E+00                                 F               0         X-component position of node 43 (blade 2, node 14), m
        128   -7.433E+01                                 F               0         Y-component position of node 43 (blade 2, node 14), m
        129    1.389E+02                                 F               0         Z-component position of node 43 (blade 2, node 14), m
        130    6.718E+00                                 F               0         X-component position of node 44 (blade 2, node 15), m
        131   -7.815E+01                                 F               0         Y-component position of node 44 (blade 2, node 15), m
        132    1.383E+02                                 F               0         Z-component position of node 44 (blade 2, node 15), m
        133    6.634E+00                                 F               0         X-component position of node 45 (blade 2, node 16), m
        134   -8.197E+01                                 F               0         Y-component position of node 45 (blade 2, node 16), m
        135    1.376E+02                                 F               0         Z-component position of node 45 (blade 2, node 16), m
        136    6.549E+00                                 F               0         X-component position of node 46 (blade 2, node 17), m
        137   -8.578E+01                                 F               0         Y-component position of node 46 (blade 2, node 17), m
        138    1.370E+02                                 F               0         Z-component position of node 46 (blade 2, node 17), m
        139    6.464E+00                                 F               0         X-component position of node 47 (blade 2, node 18), m
        140   -8.960E+01                                 F               0         Y-component position of node 47 (blade 2, node 18), m
        141    1.364E+02                                 F               0         Z-component position of node 47 (blade 2, node 18), m
        142    6.379E+00                                 F               0         X-component position of node 48 (blade 2, node 19), m
        143   -9.341E+01                                 F               0         Y-component position of node 48 (blade 2, node 19), m
        144    1.358E+02                                 F               0         Z-component position of node 48 (blade 2, node 19), m
        145    6.294E+00                                 F               0         X-component position of node 49 (blade 2, node 20), m
        146   -9.723E+01                                 F               0         Y-component position of node 49 (blade 2, node 20), m
        147    1.351E+02                                 F               0         Z-component position of node 49 (blade 2, node 20), m
        148    6.209E+00                                 F               0         X-component position of node 50 (blade 2, node 21), m
        149   -1.010E+02                                 F               0         Y-component position of node 50 (blade 2, node 21), m
        150    1.345E+02                                 F               0         Z-component position of node 50 (blade 2, node 21), m
        151    6.124E+00                                 F               0         X-component position of node 51 (blade 2, node 22), m
        152   -1.049E+02                                 F               0         Y-component position of node 51 (blade 2, node 22), m
        153    1.339E+02                                 F               0         Z-component position of node 51 (blade 2, node 22), m
        154    6.039E+00                                 F               0         X-component position of node 52 (blade 2, node 23), m
        155   -1.087E+02                                 F               0         Y-component position of node 52 (blade 2, node 23), m
        156    1.333E+02                                 F               0         Z-component position of node 52 (blade 2, node 23), m
        157    5.954E+00                                 F               0         X-component position of node 53 (blade 2, node 24), m
        158   -1.125E+02                                 F               0         Y-component position of node 53 (blade 2, node 24), m
        159    1.326E+02                                 F               0         Z-component position of node 53 (blade 2, node 24), m
        160    5.869E+00                                 F               0         X-component position of node 54 (blade 2, node 25), m
        161   -1.163E+02                                 F               0         Y-component position of node 54 (blade 2, node 25), m
        162    1.320E+02                                 F               0         Z-component position of node 54 (blade 2, node 25), m
        163    5.784E+00                                 F               0         X-component position of node 55 (blade 2, node 26), m
        164   -1.201E+02                                 F               0         Y-component position of node 55 (blade 2, node 26), m
        165    1.314E+02                                 F               0         Z-component position of node 55 (blade 2, node 26), m
        166    5.699E+00                                 F               0         X-component position of node 56 (blade 2, node 27), m
        167   -1.239E+02                                 F               0         Y-component position of node 56 (blade 2, node 27), m
        168    1.308E+02                                 F               0         Z-component position of node 56 (blade 2, node 27), m
        169    5.627E+00                                 F               0         X-component position of node 57 (blade 2, node 28), m
        170   -1.272E+02                                 F               0         Y-component position of node 57 (blade 2, node 28), m
        171    1.302E+02                                 F               0         Z-component position of node 57 (blade 2, node 28), m
        172    7.423E+00                                 F               0         X-component position of node 58 (blade 3, node 1), m
        173   -4.155E+00                                 F               0         Y-component position of node 58 (blade 3, node 1), m
        174    1.456E+02                                 F               0         Z-component position of node 58 (blade 3, node 1), m
        175    7.215E+00                                 F               0         X-component position of node 59 (blade 3, node 2), m
        176   -3.308E+00                                 F               0         Y-component position of node 59 (blade 3, node 2), m
        177    1.446E+02                                 F               0         Z-component position of node 59 (blade 3, node 2), m
        178    4.382E+00                                 F               0         X-component position of node 60 (blade 3, node 3), m
        179    8.210E+00                                 F               0         Y-component position of node 60 (blade 3, node 3), m
        180    1.309E+02                                 F               0         Z-component position of node 60 (blade 3, node 3), m
        181    3.778E+00                                 F               0         X-component position of node 61 (blade 3, node 4), m
        182    1.066E+01                                 F               0         Y-component position of node 61 (blade 3, node 4), m
        183    1.280E+02                                 F               0         Z-component position of node 61 (blade 3, node 4), m
        184    3.174E+00                                 F               0         X-component position of node 62 (blade 3, node 5), m
        185    1.312E+01                                 F               0         Y-component position of node 62 (blade 3, node 5), m
        186    1.250E+02                                 F               0         Z-component position of node 62 (blade 3, node 5), m
        187    2.571E+00                                 F               0         X-component position of node 63 (blade 3, node 6), m
        188    1.557E+01                                 F               0         Y-component position of node 63 (blade 3, node 6), m
        189    1.221E+02                                 F               0         Z-component position of node 63 (blade 3, node 6), m
        190    1.967E+00                                 F               0         X-component position of node 64 (blade 3, node 7), m
        191    1.803E+01                                 F               0         Y-component position of node 64 (blade 3, node 7), m
        192    1.192E+02                                 F               0         Z-component position of node 64 (blade 3, node 7), m
        193    1.363E+00                                 F               0         X-component position of node 65 (blade 3, node 8), m
        194    2.048E+01                                 F               0         Y-component position of node 65 (blade 3, node 8), m
        195    1.163E+02                                 F               0         Z-component position of node 65 (blade 3, node 8), m
        196    7.594E-01                                 F               0         X-component position of node 66 (blade 3, node 9), m
        197    2.294E+01                                 F               0         Y-component position of node 66 (blade 3, node 9), m
        198    1.133E+02                                 F               0         Z-component position of node 66 (blade 3, node 9), m
        199    1.557E-01                                 F               0         X-component position of node 67 (blade 3, node 10), m
        200    2.539E+01                                 F               0         Y-component position of node 67 (blade 3, node 10), m
        201    1.104E+02                                 F               0         Z-component position of node 67 (blade 3, node 10), m
        202   -4.479E-01                                 F               0         X-component position of node 68 (blade 3, node 11), m
        203    2.784E+01                                 F               0         Y-component position of node 68 (blade 3, node 11), m
        204    1.075E+02                                 F               0         Z-component position of node 68 (blade 3, node 11), m
        205   -1.052E+00                                 F               0         X-component position of node 69 (blade 3, node 12), m
        206    3.030E+01                                 F               0         Y-component position of node 69 (blade 3, node 12), m
        207    1.045E+02                                 F               0         Z-component position of node 69 (blade 3, node 12), m
        208   -1.655E+00                                 F               0         X-component position of node 70 (blade 3, node 13), m
        209    3.275E+01                                 F               0         Y-component position of node 70 (blade 3, node 13), m
        210    1.016E+02                                 F               0         Z-component position of node 70 (blade 3, node 13), m
        211   -2.259E+00                                 F               0         X-component position of node 71 (blade 3, node 14), m