
Linearized model: Predictions were generated on 12-Jan-2024 at 08:43:17 using OpenFAST, compiled as a 64-bit application using single precision at commit v3.5.1
 linked with  NWTC Subroutine Library; ElastoDyn; InflowWind; AeroDyn; ServoDyn; HydroDyn; MAP++ (<1.20.10>, <Oct-20-2023>)

Description from the FAST input file: CCT-9 Campign 4 model. Input files to be run with OpenFAST 3.5.0. GitHub branch from Lu Wang (https://github.com/luwang00/openfast/tree/dev) compiled on March 7, 2023.

Simulation information:
   Simulation time:                   506.9250 s
   Rotor Speed:                         0.7076 rad/s
   Azimuth:                             2.0332 rad
   Wind Speed:                          8.0000 m/s
   Number of continuous states:         0
   Number of discrete states:           0
   Number of constraint states:         0
   Number of inputs:                  303
   Number of outputs:                   1
   Jacobians included in this file?    No

Order of inputs:
     Column   Operating Point                     Rotating Frame? Derivative Order Description
   ---------- ---------------                     --------------- ---------------- -----------
          1   -1.080E+01                                 F               0         X-component position of node 1 (hub), m
          2    0.000E+00                                 F               0         Y-component position of node 1 (hub), m
          3    1.497E+02                                 F               0         Z-component position of node 1 (hub), m
          4    7.797E+00                                 F               0         X-component position of node 2 (blade 1, node 1), m
          5   -1.236E+01                                 F               0         Y-component position of node 2 (blade 1, node 1), m
          6    1.472E+02                                 F               0         Z-component position of node 2 (blade 1, node 1), m
          7    7.682E+00                                 F               0         X-component position of node 3 (blade 1, node 2), m
          8   -1.352E+01                                 F               0         Y-component position of node 3 (blade 1, node 2), m
          9    1.466E+02                                 F               0         Z-component position of node 3 (blade 1, node 2), m
         10    6.121E+00                                 F               0         X-component position of node 4 (blade 1, node 3), m
         11   -2.937E+01                                 F               0         Y-component position of node 4 (blade 1, node 3), m
         12    1.378E+02                                 F               0         Z-component position of node 4 (blade 1, node 3), m
         13    5.789E+00                                 F               0         X-component position of node 5 (blade 1, node 4), m
         14   -3.275E+01                                 F               0         Y-component position of node 5 (blade 1, node 4), m
         15    1.360E+02                                 F               0         Z-component position of node 5 (blade 1, node 4), m
         16    5.456E+00                                 F               0         X-component position of node 6 (blade 1, node 5), m
         17   -3.612E+01                                 F               0         Y-component position of node 6 (blade 1, node 5), m
         18    1.341E+02                                 F               0         Z-component position of node 6 (blade 1, node 5), m
         19    5.124E+00                                 F               0         X-component position of node 7 (blade 1, node 6), m
         20   -3.950E+01                                 F               0         Y-component position of node 7 (blade 1, node 6), m
         21    1.323E+02                                 F               0         Z-component position of node 7 (blade 1, node 6), m
         22    4.791E+00                                 F               0         X-component position of node 8 (blade 1, node 7), m
         23   -4.288E+01                                 F               0         Y-component position of node 8 (blade 1, node 7), m
         24    1.304E+02                                 F               0         Z-component position of node 8 (blade 1, node 7), m
         25    4.458E+00                                 F               0         X-component position of node 9 (blade 1, node 8), m
         26   -4.625E+01                                 F               0         Y-component position of node 9 (blade 1, node 8), m
         27    1.286E+02                                 F               0         Z-component position of node 9 (blade 1, node 8), m
         28    4.126E+00                                 F               0         X-component position of node 10 (blade 1, node 9), m
         29   -4.963E+01                                 F               0         Y-component position of node 10 (blade 1, node 9), m
         30    1.267E+02                                 F               0         Z-component position of node 10 (blade 1, node 9), m
         31    3.793E+00                                 F               0         X-component position of node 11 (blade 1, node 10), m
         32   -5.301E+01                                 F               0         Y-component position of node 11 (blade 1, node 10), m
         33    1.249E+02                                 F               0         Z-component position of node 11 (blade 1, node 10), m
         34    3.461E+00                                 F               0         X-component position of node 12 (blade 1, node 11), m
         35   -5.638E+01                                 F               0         Y-component position of node 12 (blade 1, node 11), m
         36    1.230E+02                                 F               0         Z-component position of node 12 (blade 1, node 11), m
         37    3.128E+00                                 F               0         X-component position of node 13 (blade 1, node 12), m
         38   -5.976E+01                                 F               0         Y-component position of node 13 (blade 1, node 12), m
         39    1.211E+02                                 F               0         Z-component position of node 13 (blade 1, node 12), m
         40    2.796E+00                                 F               0         X-component position of node 14 (blade 1, node 13), m
         41   -6.314E+01                                 F               0         Y-component position of node 14 (blade 1, node 13), m
         42    1.193E+02                                 F               0         Z-component position of node 14 (blade 1, node 13), m
         43    2.463E+00                                 F               0         X-component position of node 15 (blade 1, node 14), m
         44   -6.651E+01                                 F               0         Y-component position of node 15 (blade 1, node 14), m
         45    1.174E+02                                 F               0         Z-component position of node 15 (blade 1, node 14), m
         46    2.131E+00                                 F               0         X-component position of node 16 (blade 1, node 15), m
         47   -6.989E+01                                 F               0         Y-component position of node 16 (blade 1, node 15), m
         48    1.156E+02                                 F               0         Z-component position of node 16 (blade 1, node 15), m
         49    1.798E+00                                 F               0         X-component position of node 17 (blade 1, node 16), m
         50   -7.327E+01                                 F               0         Y-component position of node 17 (blade 1, node 16), m
         51    1.137E+02                                 F               0         Z-component position of node 17 (blade 1, node 16), m
         52    1.466E+00                                 F               0         X-component position of node 18 (blade 1, node 17), m
         53   -7.664E+01                                 F               0         Y-component position of node 18 (blade 1, node 17), m
         54    1.119E+02                                 F               0         Z-component position of node 18 (blade 1, node 17), m
         55    1.133E+00                                 F               0         X-component position of node 19 (blade 1, node 18), m
         56   -8.002E+01                                 F               0         Y-component position of node 19 (blade 1, node 18), m
         57    1.100E+02                                 F               0         Z-component position of node 19 (blade 1, node 18), m
         58    8.005E-01                                 F               0         X-component position of node 20 (blade 1, node 19), m
         59   -8.340E+01                                 F               0         Y-component position of node 20 (blade 1, node 19), m
         60    1.081E+02                                 F               0         Z-component position of node 20 (blade 1, node 19), m
         61    4.680E-01                                 F               0         X-component position of node 21 (blade 1, node 20), m
         62   -8.677E+01                                 F               0         Y-component position of node 21 (blade 1, node 20), m
         63    1.063E+02                                 F               0         Z-component position of node 21 (blade 1, node 20), m
         64    1.355E-01                                 F               0         X-component position of node 22 (blade 1, node 21), m
         65   -9.015E+01                                 F               0         Y-component position of node 22 (blade 1, node 21), m
         66    1.044E+02                                 F               0         Z-component position of node 22 (blade 1, node 21), m
         67   -1.971E-01                                 F               0         X-component position of node 23 (blade 1, node 22), m
         68   -9.353E+01                                 F               0         Y-component position of node 23 (blade 1, node 22), m
         69    1.026E+02                                 F               0         Z-component position of node 23 (blade 1, node 22), m
         70   -5.296E-01                                 F               0         X-component position of node 24 (blade 1, node 23), m
         71   -9.690E+01                                 F               0         Y-component position of node 24 (blade 1, node 23), m
         72    1.007E+02                                 F               0         Z-component position of node 24 (blade 1, node 23), m
         73   -8.622E-01                                 F               0         X-component position of node 25 (blade 1, node 24), m
         74   -1.003E+02                                 F               0         Y-component position of node 25 (blade 1, node 24), m
         75    9.886E+01                                 F               0         Z-component position of node 25 (blade 1, node 24), m
         76   -1.195E+00                                 F               0         X-component position of node 26 (blade 1, node 25), m
         77   -1.037E+02                                 F               0         Y-component position of node 26 (blade 1, node 25), m
         78    9.701E+01                                 F               0         Z-component position of node 26 (blade 1, node 25), m
         79   -1.527E+00                                 F               0         X-component position of node 27 (blade 1, node 26), m
         80   -1.070E+02                                 F               0         Y-component position of node 27 (blade 1, node 26), m
         81    9.515E+01                                 F               0         Z-component position of node 27 (blade 1, node 26), m
         82   -1.860E+00                                 F               0         X-component position of node 28 (blade 1, node 27), m
         83   -1.104E+02                                 F               0         Y-component position of node 28 (blade 1, node 27), m
         84    9.329E+01                                 F               0         Z-component position of node 28 (blade 1, node 27), m
         85   -2.142E+00                                 F               0         X-component position of node 29 (blade 1, node 28), m
         86   -1.133E+02                                 F               0         Y-component position of node 29 (blade 1, node 28), m
         87    9.172E+01                                 F               0         Z-component position of node 29 (blade 1, node 28), m
         88    7.676E+00                                 F               0         X-component position of node 30 (blade 2, node 1), m
         89   -2.761E+00                                 F               0         Y-component position of node 30 (blade 2, node 1), m
         90    1.471E+02                                 F               0         Z-component position of node 30 (blade 2, node 1), m
         91    7.532E+00                                 F               0         X-component position of node 31 (blade 2, node 2), m
         92   -1.615E+00                                 F               0         Y-component position of node 31 (blade 2, node 2), m
         93    1.464E+02                                 F               0         Z-component position of node 31 (blade 2, node 2), m
         94    5.575E+00                                 F               0         X-component position of node 32 (blade 2, node 3), m
         95    1.397E+01                                 F               0         Y-component position of node 32 (blade 2, node 3), m
         96    1.373E+02                                 F               0         Z-component position of node 32 (blade 2, node 3), m
         97    5.158E+00                                 F               0         X-component position of node 33 (blade 2, node 4), m
         98    1.729E+01                                 F               0         Y-component position of node 33 (blade 2, node 4), m
         99    1.354E+02                                 F               0         Z-component position of node 33 (blade 2, node 4), m
        100    4.741E+00                                 F               0         X-component position of node 34 (blade 2, node 5), m
        101    2.062E+01                                 F               0         Y-component position of node 34 (blade 2, node 5), m
        102    1.334E+02                                 F               0         Z-component position of node 34 (blade 2, node 5), m
        103    4.324E+00                                 F               0         X-component position of node 35 (blade 2, node 6), m
        104    2.394E+01                                 F               0         Y-component position of node 35 (blade 2, node 6), m
        105    1.315E+02                                 F               0         Z-component position of node 35 (blade 2, node 6), m
        106    3.907E+00                                 F               0         X-component position of node 36 (blade 2, node 7), m
        107    2.726E+01                                 F               0         Y-component position of node 36 (blade 2, node 7), m
        108    1.296E+02                                 F               0         Z-component position of node 36 (blade 2, node 7), m
        109    3.490E+00                                 F               0         X-component position of node 37 (blade 2, node 8), m
        110    3.058E+01                                 F               0         Y-component position of node 37 (blade 2, node 8), m
        111    1.276E+02                                 F               0         Z-component position of node 37 (blade 2, node 8), m
        112    3.074E+00                                 F               0         X-component position of node 38 (blade 2, node 9), m
        113    3.390E+01                                 F               0         Y-component position of node 38 (blade 2, node 9), m
        114    1.257E+02                                 F               0         Z-component position of node 38 (blade 2, node 9), m
        115    2.657E+00                                 F               0         X-component position of node 39 (blade 2, node 10), m
        116    3.722E+01                                 F               0         Y-component position of node 39 (blade 2, node 10), m
        117    1.238E+02                                 F               0         Z-component position of node 39 (blade 2, node 10), m
        118    2.240E+00                                 F               0         X-component position of node 40 (blade 2, node 11), m
        119    4.054E+01                                 F               0         Y-component position of node 40 (blade 2, node 11), m
        120    1.218E+02                                 F               0         Z-component position of node 40 (blade 2, node 11), m
        121    1.823E+00                                 F               0         X-component position of node 41 (blade 2, node 12), m
        122    4.386E+01                                 F               0         Y-component position of node 41 (blade 2, node 12), m
        123    1.199E+02                                 F               0         Z-component position of node 41 (blade 2, node 12), m
        124    1.406E+00                                 F               0         X-component position of node 42 (blade 2, node 13), m
        125    4.719E+01                                 F               0         Y-component position of node 42 (blade 2, node 13), m
        126    1.179E+02                                 F               0         Z-component position of node 42 (blade 2, node 13), m
        127    9.890E-01                                 F               0         X-component position of node 43 (blade 2, node 14), m
        128    5.051E+01                                 F               0         Y-component position of node 43 (blade 2, node 14), m
        129    1.160E+02                                 F               0         Z-component position of node 43 (blade 2, node 14), m
        130    5.720E-01                                 F               0         X-component position of node 44 (blade 2, node 15), m
        131    5.383E+01                                 F               0         Y-component position of node 44 (blade 2, node 15), m
        132    1.141E+02                                 F               0         Z-component position of node 44 (blade 2, node 15), m
        133    1.551E-01                                 F               0         X-component position of node 45 (blade 2, node 16), m
        134    5.715E+01                                 F               0         Y-component position of node 45 (blade 2, node 16), m
        135    1.121E+02                                 F               0         Z-component position of node 45 (blade 2, node 16), m
        136   -2.619E-01                                 F               0         X-component position of node 46 (blade 2, node 17), m
        137    6.047E+01                                 F               0         Y-component position of node 46 (blade 2, node 17), m
        138    1.102E+02                                 F               0         Z-component position of node 46 (blade 2, node 17), m
        139   -6.788E-01                                 F               0         X-component position of node 47 (blade 2, node 18), m
        140    6.379E+01                                 F               0         Y-component position of node 47 (blade 2, node 18), m
        141    1.083E+02                                 F               0         Z-component position of node 47 (blade 2, node 18), m
        142   -1.096E+00                                 F               0         X-component position of node 48 (blade 2, node 19), m
        143    6.711E+01                                 F               0         Y-component position of node 48 (blade 2, node 19), m
        144    1.063E+02                                 F               0         Z-component position of node 48 (blade 2, node 19), m
        145   -1.513E+00                                 F               0         X-component position of node 49 (blade 2, node 20), m
        146    7.043E+01                                 F               0         Y-component position of node 49 (blade 2, node 20), m
        147    1.044E+02                                 F               0         Z-component position of node 49 (blade 2, node 20), m
        148   -1.930E+00                                 F               0         X-component position of node 50 (blade 2, node 21), m
        149    7.376E+01                                 F               0         Y-component position of node 50 (blade 2, node 21), m
        150    1.024E+02                                 F               0         Z-component position of node 50 (blade 2, node 21), m
        151   -2.347E+00                                 F               0         X-component position of node 51 (blade 2, node 22), m
        152    7.708E+01                                 F               0         Y-component position of node 51 (blade 2, node 22), m
        153    1.005E+02                                 F               0         Z-component position of node 51 (blade 2, node 22), m
        154   -2.763E+00                                 F               0         X-component position of node 52 (blade 2, node 23), m
        155    8.040E+01                                 F               0         Y-component position of node 52 (blade 2, node 23), m
        156    9.856E+01                                 F               0         Z-component position of node 52 (blade 2, node 23), m
        157   -3.180E+00                                 F               0         X-component position of node 53 (blade 2, node 24), m
        158    8.372E+01                                 F               0         Y-component position of node 53 (blade 2, node 24), m
        159    9.663E+01                                 F               0         Z-component position of node 53 (blade 2, node 24), m
        160   -3.597E+00                                 F               0         X-component position of node 54 (blade 2, node 25), m
        161    8.704E+01                                 F               0         Y-component position of node 54 (blade 2, node 25), m
        162    9.469E+01                                 F               0         Z-component position of node 54 (blade 2, node 25), m
        163   -4.014E+00                                 F               0         X-component position of node 55 (blade 2, node 26), m
        164    9.036E+01                                 F               0         Y-component position of node 55 (blade 2, node 26), m
        165    9.275E+01                                 F               0         Z-component position of node 55 (blade 2, node 26), m
        166   -4.431E+00                                 F               0         X-component position of node 56 (blade 2, node 27), m
        167    9.368E+01                                 F               0         Y-component position of node 56 (blade 2, node 27), m
        168    9.081E+01                                 F               0         Z-component position of node 56 (blade 2, node 27), m
        169   -4.785E+00                                 F               0         X-component position of node 57 (blade 2, node 28), m
        170    9.650E+01                                 F               0         Y-component position of node 57 (blade 2, node 28), m
        171    8.917E+01                                 F               0         Z-component position of node 57 (blade 2, node 28), m
        172    9.347E+00                                 F               0         X-component position of node 58 (blade 3, node 1), m
        173   -7.439E+00                                 F               0         Y-component position of node 58 (blade 3, node 1), m
        174    1.553E+02                                 F               0         Z-component position of node 58 (blade 3, node 1), m
        175    9.605E+00                                 F               0         X-component position of node 59 (blade 3, node 2), m
        176   -7.420E+00                                 F               0         Y-component position of node 59 (blade 3, node 2), m
        177    1.566E+02                                 F               0         Z-component position of node 59 (blade 3, node 2), m
        178    1.312E+01                                 F               0         X-component position of node 60 (blade 3, node 3), m
        179   -7.159E+00                                 F               0         Y-component position of node 60 (blade 3, node 3), m
        180    1.744E+02                                 F               0         Z-component position of node 60 (blade 3, node 3), m
        181    1.387E+01                                 F               0         X-component position of node 61 (blade 3, node 4), m
        182   -7.103E+00                                 F               0         Y-component position of node 61 (blade 3, node 4), m
        183    1.782E+02                                 F               0         Z-component position of node 61 (blade 3, node 4), m
        184    1.462E+01                                 F               0         X-component position of node 62 (blade 3, node 5), m
        185   -7.048E+00                                 F               0         Y-component position of node 62 (blade 3, node 5), m
        186    1.820E+02                                 F               0         Z-component position of node 62 (blade 3, node 5), m
        187    1.537E+01                                 F               0         X-component position of node 63 (blade 3, node 6), m
        188   -6.992E+00                                 F               0         Y-component position of node 63 (blade 3, node 6), m
        189    1.858E+02                                 F               0         Z-component position of node 63 (blade 3, node 6), m
        190    1.612E+01                                 F               0         X-component position of node 64 (blade 3, node 7), m
        191   -6.937E+00                                 F               0         Y-component position of node 64 (blade 3, node 7), m
        192    1.896E+02                                 F               0         Z-component position of node 64 (blade 3, node 7), m
        193    1.687E+01                                 F               0         X-component position of node 65 (blade 3, node 8), m
        194   -6.881E+00                                 F               0         Y-component position of node 65 (blade 3, node 8), m
        195    1.934E+02                                 F               0         Z-component position of node 65 (blade 3, node 8), m
        196    1.762E+01                                 F               0         X-component position of node 66 (blade 3, node 9), m
        197   -6.826E+00                                 F               0         Y-component position of node 66 (blade 3, node 9), m
        198    1.972E+02                                 F               0         Z-component position of node 66 (blade 3, node 9), m
        199    1.837E+01                                 F               0         X-component position of node 67 (blade 3, node 10), m
        200   -6.770E+00                                 F               0         Y-component position of node 67 (blade 3, node 10), m
        201    2.010E+02                                 F               0         Z-component position of node 67 (blade 3, node 10), m
        202    1.912E+01                                 F               0         X-component position of node 68 (blade 3, node 11), m
        203   -6.715E+00                                 F               0         Y-component position of node 68 (blade 3, node 11), m
        204    2.048E+02                                 F               0         Z-component position of node 68 (blade 3, node 11), m
        205    1.987E+01                                 F               0         X-component position of node 69 (blade 3, node 12), m
        206   -6.659E+00                                 F               0         Y-component position of node 69 (blade 3, node 12), m
        207    2.086E+02                                 F               0         Z-component position of node 69 (blade 3, node 12), m
        208    2.062E+01                                 F               0         X-component position of node 70 (blade 3, node 13), m
        209   -6.604E+00                                 F               0         Y-component position of node 70 (blade 3, node 13), m
        210    2.123E+02                                 F               0         Z-component position of node 70 (blade 3, node 13), m
        211    2.137E+01                                 F               0         X-component position of node 71 (blade 3, node 14), m