
Linearized model: Predictions were generated on 12-Jan-2024 at 08:43:17 using OpenFAST, compiled as a 64-bit application using single precision at commit v3.5.1
 linked with  NWTC Subroutine Library; ElastoDyn; InflowWind; AeroDyn; ServoDyn; HydroDyn; MAP++ (<1.20.10>, <Oct-20-2023>)

Description from the FAST input file: CCT-9 Campign 4 model. Input files to be run with OpenFAST 3.5.0. GitHub branch from Lu Wang (https://github.com/luwang00/openfast/tree/dev) compiled on March 7, 2023.

Simulation information:
   Simulation time:                   506.1750 s
   Rotor Speed:                         0.7075 rad/s
   Azimuth:                             1.5026 rad
   Wind Speed:                          8.0000 m/s
   Number of continuous states:         0
   Number of discrete states:           0
   Number of constraint states:         0
   Number of inputs:                 1746
   Number of outputs:                   4
   Jacobians included in this file?    No

Order of inputs:
     Column   Operating Point                     Rotating Frame? Derivative Order Description
   ---------- ---------------                     --------------- ---------------- -----------
          1    7.318E+00                                 F               0         Tower X translation displacement, node 1, m
          2   -1.305E+00                                 F               0         Tower Y translation displacement, node 1, m
          3   -1.941E-01                                 F               0         Tower Z translation displacement, node 1, m
          4    8.378E+00                                 F               0         Tower X translation displacement, node 2, m
          5   -1.872E+00                                 F               0         Tower Y translation displacement, node 2, m
          6   -2.527E-01                                 F               0         Tower Z translation displacement, node 2, m
          7    9.454E+00                                 F               0         Tower X translation displacement, node 3, m
          8   -2.443E+00                                 F               0         Tower Y translation displacement, node 3, m
          9   -3.129E-01                                 F               0         Tower Z translation displacement, node 3, m
         10    1.054E+01                                 F               0         Tower X translation displacement, node 4, m
         11   -3.019E+00                                 F               0         Tower Y translation displacement, node 4, m
         12   -3.743E-01                                 F               0         Tower Z translation displacement, node 4, m
         13    1.164E+01                                 F               0         Tower X translation displacement, node 5, m
         14   -3.599E+00                                 F               0         Tower Y translation displacement, node 5, m
         15   -4.368E-01                                 F               0         Tower Z translation displacement, node 5, m
         16    1.274E+01                                 F               0         Tower X translation displacement, node 6, m
         17   -4.182E+00                                 F               0         Tower Y translation displacement, node 6, m
         18   -5.001E-01                                 F               0         Tower Z translation displacement, node 6, m
         19    1.385E+01                                 F               0         Tower X translation displacement, node 7, m
         20   -4.767E+00                                 F               0         Tower Y translation displacement, node 7, m
         21   -5.640E-01                                 F               0         Tower Z translation displacement, node 7, m
         22    1.497E+01                                 F               0         Tower X translation displacement, node 8, m
         23   -5.354E+00                                 F               0         Tower Y translation displacement, node 8, m
         24   -6.283E-01                                 F               0         Tower Z translation displacement, node 8, m
         25    1.608E+01                                 F               0         Tower X translation displacement, node 9, m
         26   -5.943E+00                                 F               0         Tower Y translation displacement, node 9, m
         27   -6.930E-01                                 F               0         Tower Z translation displacement, node 9, m
         28    1.720E+01                                 F               0         Tower X translation displacement, node 10, m
         29   -6.533E+00                                 F               0         Tower Y translation displacement, node 10, m
         30   -7.578E-01                                 F               0         Tower Z translation displacement, node 10, m
         31    1.832E+01                                 F               0         Tower X translation displacement, node 11, m
         32   -7.124E+00                                 F               0         Tower Y translation displacement, node 11, m
         33   -8.228E-01                                 F               0         Tower Z translation displacement, node 11, m
         34    9.964E-01,  4.784E-03, -8.514E-02         F               0         Tower X orientation angle, node 1, rad
         35   -8.741E-04,  9.989E-01,  4.590E-02         F               0         Tower Y orientation angle, node 1, rad
         36    8.527E-02, -4.566E-02,  9.953E-01         F               0         Tower Z orientation angle, node 1, rad
         37    9.963E-01,  4.840E-03, -8.636E-02         F               0         Tower X orientation angle, node 2, rad
         38   -8.382E-04,  9.989E-01,  4.631E-02         F               0         Tower Y orientation angle, node 2, rad
         39    8.649E-02, -4.607E-02,  9.952E-01         F               0         Tower Z orientation angle, node 2, rad
         40    9.962E-01,  4.889E-03, -8.741E-02         F               0         Tower X orientation angle, node 3, rad
         41   -8.055E-04,  9.989E-01,  4.669E-02         F               0         Tower Y orientation angle, node 3, rad
         42    8.754E-02, -4.644E-02,  9.951E-01         F               0         Tower Z orientation angle, node 3, rad
         43    9.961E-01,  4.929E-03, -8.828E-02         F               0         Tower X orientation angle, node 4, rad
         44   -7.767E-04,  9.989E-01,  4.701E-02         F               0         Tower Y orientation angle, node 4, rad
         45    8.841E-02, -4.676E-02,  9.950E-01         F               0         Tower Z orientation angle, node 4, rad
         46    9.960E-01,  4.962E-03, -8.897E-02         F               0         Tower X orientation angle, node 5, rad
         47   -7.518E-04,  9.989E-01,  4.729E-02         F               0         Tower Y orientation angle, node 5, rad
         48    8.911E-02, -4.704E-02,  9.949E-01         F               0         Tower Z orientation angle, node 5, rad
         49    9.960E-01,  4.987E-03, -8.950E-02         F               0         Tower X orientation angle, node 6, rad
         50   -7.308E-04,  9.989E-01,  4.753E-02         F               0         Tower Y orientation angle, node 6, rad
         51    8.964E-02, -4.727E-02,  9.949E-01         F               0         Tower Z orientation angle, node 6, rad
         52    9.959E-01,  5.005E-03, -8.988E-02         F               0         Tower X orientation angle, node 7, rad
         53   -7.140E-04,  9.989E-01,  4.772E-02         F               0         Tower Y orientation angle, node 7, rad
         54    9.002E-02, -4.746E-02,  9.948E-01         F               0         Tower Z orientation angle, node 7, rad
         55    9.959E-01,  5.018E-03, -9.014E-02         F               0         Tower X orientation angle, node 8, rad
         56   -7.008E-04,  9.989E-01,  4.786E-02         F               0         Tower Y orientation angle, node 8, rad
         57    9.028E-02, -4.760E-02,  9.948E-01         F               0         Tower Z orientation angle, node 8, rad
         58    9.959E-01,  5.026E-03, -9.030E-02         F               0         Tower X orientation angle, node 9, rad
         59   -6.913E-04,  9.988E-01,  4.797E-02         F               0         Tower Y orientation angle, node 9, rad
         60    9.044E-02, -4.771E-02,  9.948E-01         F               0         Tower Z orientation angle, node 9, rad
         61    9.959E-01,  5.031E-03, -9.040E-02         F               0         Tower X orientation angle, node 10, rad
         62   -6.850E-04,  9.988E-01,  4.804E-02         F               0         Tower Y orientation angle, node 10, rad
         63    9.053E-02, -4.778E-02,  9.947E-01         F               0         Tower Z orientation angle, node 10, rad
         64    9.959E-01,  5.033E-03, -9.044E-02         F               0         Tower X orientation angle, node 11, rad
         65   -6.815E-04,  9.988E-01,  4.808E-02         F               0         Tower Y orientation angle, node 11, rad
         66    9.057E-02, -4.782E-02,  9.947E-01         F               0         Tower Z orientation angle, node 11, rad
         67   -5.082E-03                                 F               0         Tower X translation velocity, node 1, m/s
         68    6.834E-03                                 F               0         Tower Y translation velocity, node 1, m/s
         69    3.415E-03                                 F               0         Tower Z translation velocity, node 1, m/s
         70   -4.968E-03                                 F               0         Tower X translation velocity, node 2, m/s
         71    1.059E-02                                 F               0         Tower Y translation velocity, node 2, m/s
         72    3.578E-03                                 F               0         Tower Z translation velocity, node 2, m/s
         73   -4.844E-03                                 F               0         Tower X translation velocity, node 3, m/s
         74    1.439E-02                                 F               0         Tower Y translation velocity, node 3, m/s
         75    3.744E-03                                 F               0         Tower Z translation velocity, node 3, m/s
         76   -4.711E-03                                 F               0         Tower X translation velocity, node 4, m/s
         77    1.822E-02                                 F               0         Tower Y translation velocity, node 4, m/s
         78    3.912E-03                                 F               0         Tower Z translation velocity, node 4, m/s
         79   -4.570E-03                                 F               0         Tower X translation velocity, node 5, m/s
         80    2.208E-02                                 F               0         Tower Y translation velocity, node 5, m/s
         81    4.081E-03                                 F               0         Tower Z translation velocity, node 5, m/s
         82   -4.421E-03                                 F               0         Tower X translation velocity, node 6, m/s
         83    2.597E-02                                 F               0         Tower Y translation velocity, node 6, m/s
         84    4.252E-03                                 F               0         Tower Z translation velocity, node 6, m/s
         85   -4.267E-03                                 F               0         Tower X translation velocity, node 7, m/s
         86    2.987E-02                                 F               0         Tower Y translation velocity, node 7, m/s
         87    4.424E-03                                 F               0         Tower Z translation velocity, node 7, m/s
         88   -4.106E-03                                 F               0         Tower X translation velocity, node 8, m/s
         89    3.379E-02                                 F               0         Tower Y translation velocity, node 8, m/s
         90    4.597E-03                                 F               0         Tower Z translation velocity, node 8, m/s
         91   -3.941E-03                                 F               0         Tower X translation velocity, node 9, m/s
         92    3.772E-02                                 F               0         Tower Y translation velocity, node 9, m/s
         93    4.770E-03                                 F               0         Tower Z translation velocity, node 9, m/s
         94   -3.773E-03                                 F               0         Tower X translation velocity, node 10, m/s
         95    4.166E-02                                 F               0         Tower Y translation velocity, node 10, m/s
         96    4.944E-03                                 F               0         Tower Z translation velocity, node 10, m/s
         97   -3.602E-03                                 F               0         Tower X translation velocity, node 11, m/s
         98    4.560E-02                                 F               0         Tower Y translation velocity, node 11, m/s
         99    5.118E-03                                 F               0         Tower Z translation velocity, node 11, m/s
        100    1.908E+01                                 F               0         Hub X translation displacement, node 1, m
        101   -7.553E+00                                 F               0         Hub Y translation displacement, node 1, m
        102    1.127E-01                                 F               0         Hub Z translation displacement, node 1, m
        103    9.810E-01,  1.000E-02, -1.939E-01         F               0         Hub X orientation angle, node 1, rad
        104    1.937E-01,  2.118E-02,  9.808E-01         F               0         Hub Y orientation angle, node 1, rad
        105    1.392E-02, -9.997E-01,  1.884E-02         F               0         Hub Z orientation angle, node 1, rad
        106    6.937E-01                                 F               0         Hub X rotation velocity, node 1, rad/s
        107    7.089E-03                                 F               0         Hub Y rotation velocity, node 1, rad/s
        108   -1.371E-01                                 F               0         Hub Z rotation velocity, node 1, rad/s
        109    9.748E-01,  9.371E-03, -2.229E-01         F               0         Blade root 1 X orientation angle, node 1, rad
        110    2.227E-01,  2.146E-02,  9.747E-01         F               0         Blade root 1 Y orientation angle, node 1, rad
        111    1.392E-02, -9.997E-01,  1.884E-02         F               0         Blade root 1 Z orientation angle, node 1, rad
        112    9.830E-01,  3.600E-02, -1.798E-01         F               0         Blade root 2 X orientation angle, node 1, rad
        113   -5.565E-02, -8.757E-01, -4.797E-01         F               0         Blade root 2 Y orientation angle, node 1, rad
        114   -1.747E-01,  4.815E-01, -8.588E-01         F               0         Blade root 2 Z orientation angle, node 1, rad
        115    9.838E-01, -1.537E-02, -1.788E-01         F               0         Blade root 3 X orientation angle, node 1, rad
        116   -7.974E-02,  8.551E-01, -5.123E-01         F               0         Blade root 3 Y orientation angle, node 1, rad
        117    1.608E-01,  5.182E-01,  8.400E-01         F               0         Blade root 3 Z orientation angle, node 1, rad
        118    1.857E+01                                 F               0         Blade 1 X translation displacement, node 1, m
        119   -1.309E+01                                 F               0         Blade 1 Y translation displacement, node 1, m
        120   -5.293E+00                                 F               0         Blade 1 Z translation displacement, node 1, m
        121    1.845E+01                                 F               0         Blade 1 X translation displacement, node 2, m
        122   -1.443E+01                                 F               0         Blade 1 Y translation displacement, node 2, m
        123   -6.595E+00                                 F               0         Blade 1 Z translation displacement, node 2, m
        124    1.681E+01                                 F               0         Blade 1 X translation displacement, node 3, m
        125   -3.257E+01                                 F               0         Blade 1 Y translation displacement, node 3, m
        126   -2.431E+01                                 F               0         Blade 1 Z translation displacement, node 3, m
        127    1.646E+01                                 F               0         Blade 1 X translation displacement, node 4, m
        128   -3.644E+01                                 F               0         Blade 1 Y translation displacement, node 4, m
        129   -2.808E+01                                 F               0         Blade 1 Z translation displacement, node 4, m
        130    1.611E+01                                 F               0         Blade 1 X translation displacement, node 5, m
        131   -4.031E+01                                 F               0         Blade 1 Y translation displacement, node 5, m
        132   -3.185E+01                                 F               0         Blade 1 Z translation displacement, node 5, m
        133    1.576E+01                                 F               0         Blade 1 X translation displacement, node 6, m
        134   -4.417E+01                                 F               0         Blade 1 Y translation displacement, node 6, m
        135   -3.563E+01                                 F               0         Blade 1 Z translation displacement, node 6, m
        136    1.541E+01                                 F               0         Blade 1 X translation displacement, node 7, m
        137   -4.804E+01                                 F               0         Blade 1 Y translation displacement, node 7, m
        138   -3.940E+01                                 F               0         Blade 1 Z translation displacement, node 7, m
        139    1.506E+01                                 F               0         Blade 1 X translation displacement, node 8, m
        140   -5.191E+01                                 F               0         Blade 1 Y translation displacement, node 8, m
        141   -4.317E+01                                 F               0         Blade 1 Z translation displacement, node 8, m
        142    1.471E+01                                 F               0         Blade 1 X translation displacement, node 9, m
        143   -5.577E+01                                 F               0         Blade 1 Y translation displacement, node 9, m
        144   -4.695E+01                                 F               0         Blade 1 Z translation displacement, node 9, m
        145    1.436E+01                                 F               0         Blade 1 X translation displacement, node 10, m
        146   -5.964E+01                                 F               0         Blade 1 Y translation displacement, node 10, m
        147   -5.072E+01                                 F               0         Blade 1 Z translation displacement, node 10, m
        148    1.400E+01                                 F               0         Blade 1 X translation displacement, node 11, m
        149   -6.351E+01                                 F               0         Blade 1 Y translation displacement, node 11, m
        150   -5.450E+01                                 F               0         Blade 1 Z translation displacement, node 11, m
        151    1.365E+01                                 F               0         Blade 1 X translation displacement, node 12, m
        152   -6.737E+01                                 F               0         Blade 1 Y translation displacement, node 12, m
        153   -5.827E+01                                 F               0         Blade 1 Z translation displacement, node 12, m
        154    1.330E+01                                 F               0         Blade 1 X translation displacement, node 13, m
        155   -7.124E+01                                 F               0         Blade 1 Y translation displacement, node 13, m
        156   -6.204E+01                                 F               0         Blade 1 Z translation displacement, node 13, m
        157    1.295E+01                                 F               0         Blade 1 X translation displacement, node 14, m
        158   -7.511E+01                                 F               0         Blade 1 Y translation displacement, node 14, m
        159   -6.582E+01                                 F               0         Blade 1 Z translation displacement, node 14, m
        160    1.260E+01                                 F               0         Blade 1 X translation displacement, node 15, m
        161   -7.897E+01                                 F               0         Blade 1 Y translation displacement, node 15, m
        162   -6.959E+01                                 F               0         Blade 1 Z translation displacement, node 15, m
        163    1.225E+01                                 F               0         Blade 1 X translation displacement, node 16, m
        164   -8.284E+01                                 F               0         Blade 1 Y translation displacement, node 16, m
        165   -7.336E+01                                 F               0         Blade 1 Z translation displacement, node 16, m
        166    1.190E+01                                 F               0         Blade 1 X translation displacement, node 17, m
        167   -8.671E+01                                 F               0         Blade 1 Y translation displacement, node 17, m
        168   -7.714E+01                                 F               0         Blade 1 Z translation displacement, node 17, m
        169    1.155E+01                                 F               0         Blade 1 X translation displacement, node 18, m
        170   -9.057E+01                                 F               0         Blade 1 Y translation displacement, node 18, m
        171   -8.091E+01                                 F               0         Blade 1 Z translation displacement, node 18, m
        172    1.120E+01                                 F               0         Blade 1 X translation displacement, node 19, m
        173   -9.444E+01                                 F               0         Blade 1 Y translation displacement, node 19, m
        174   -8.468E+01                                 F               0         Blade 1 Z translation displacement, node 19, m
        175    1.085E+01                                 F               0         Blade 1 X translation displacement, node 20, m
        176   -9.831E+01                                 F               0         Blade 1 Y translation displacement, node 20, m
        177   -8.846E+01                                 F               0         Blade 1 Z translation displacement, node 20, m
        178    1.050E+01                                 F               0         Blade 1 X translation displacement, node 21, m
        179   -1.022E+02                                 F               0         Blade 1 Y translation displacement, node 21, m
        180   -9.223E+01                                 F               0         Blade 1 Z translation displacement, node 21, m
        181    1.015E+01                                 F               0         Blade 1 X translation displacement, node 22, m
        182   -1.060E+02                                 F               0         Blade 1 Y translation displacement, node 22, m
        183   -9.601E+01                                 F               0         Blade 1 Z translation displacement, node 22, m
        184    9.799E+00                                 F               0         Blade 1 X translation displacement, node 23, m
        185   -1.099E+02                                 F               0         Blade 1 Y translation displacement, node 23, m
        186   -9.978E+01                                 F               0         Blade 1 Z translation displacement, node 23, m
        187    9.449E+00                                 F               0         Blade 1 X translation displacement, node 24, m
        188   -1.138E+02                                 F               0         Blade 1 Y translation displacement, node 24, m
        189   -1.036E+02                                 F               0         Blade 1 Z translation displacement, node 24, m
        190    9.099E+00                                 F               0         Blade 1 X translation displacement, node 25, m
        191   -1.176E+02                                 F               0         Blade 1 Y translation displacement, node 25, m
        192   -1.073E+02                                 F               0         Blade 1 Z translation displacement, node 25, m
        193    8.748E+00                                 F               0         Blade 1 X translation displacement, node 26, m
        194   -1.215E+02                                 F               0         Blade 1 Y translation displacement, node 26, m
        195   -1.111E+02                                 F               0         Blade 1 Z translation displacement, node 26, m
        196    8.398E+00                                 F               0         Blade 1 X translation displacement, node 27, m
        197   -1.254E+02                                 F               0         Blade 1 Y translation displacement, node 27, m
        198   -1.149E+02                                 F               0         Blade 1 Z translation displacement, node 27, m
        199    8.100E+00                                 F               0         Blade 1 X translation displacement, node 28, m
        200   -1.287E+02                                 F               0         Blade 1 Y translation displacement, node 28, m
        201   -1.181E+02                                 F               0         Blade 1 Z translation displacement, node 28, m
        202    7.660E-01, -1.448E-03, -6.429E-01         F               0         Blade 1 X orientation angle, node 1, rad
        203    6.427E-01,  2.338E-02,  7.658E-01         F               0         Blade 1 Y orientation angle, node 1, rad
        204    1.392E-02, -9.997E-01,  1.884E-02         F               0         Blade 1 Z orientation angle, node 1, rad
        205    7.660E-01, -1.448E-03, -6.429E-01         F               0         Blade 1 X orientation angle, node 2, rad
        206    6.427E-01,  2.338E-02,  7.658E-01         F               0         Blade 1 Y orientation angle, node 2, rad
        207    1.392E-02, -9.997E-01,  1.884E-02         F               0         Blade 1 Z orientation angle, node 2, rad
        208    8.965E-01,  4.133E-03, -4.431E-01         F               0         Blade 1 X orientation angle, node 3, rad
        209    4.429E-01,  2.305E-02,  8.963E-01         F               0         Blade 1 Y orientation angle, node 3, rad
        210    1.392E-02, -9.997E-01,  1.884E-02         F               0         Blade 1 Z orientation angle, node 3, rad
        211    9.144E-01,  5.103E-03, -4.048E-01         F               0         Blade 1 X orientation angle, node 4, rad
        212    4.046E-01,  2.286E-02,  9.142E-01         F               0         Blade 1 Y orientation angle, node 4, rad
        213    1.392E-02, -9.997E-01,  1.884E-02         F               0         Blade 1 Z orientation angle, node 4, rad
        214    9.273E-01,  5.858E-03, -3.743E-01         F               0         Blade 1 X orientation angle, node 5, rad
        215    3.741E-01,  2.268E-02,  9.271E-01         F               0         Blade 1 Y orientation angle, node 5, rad
        216    1.392E-02, -9.997E-01,  1.884E-02         F               0         Blade 1 Z orientation angle, node 5, rad
        217    9.369E-01,  6.458E-03, -3.496E-01         F               0         Blade 1 X orientation angle, node 6, rad
        218    3.493E-01,  2.251E-02,  9.367E-01         F               0         Blade 1 Y orientation angle, node 6, rad
        219    1.392E-02, -9.997E-01,  1.884E-02         F               0         Blade 1 Z orientation angle, node 6, rad
        220    9.443E-01,  6.947E-03, -3.290E-01         F               0         Blade 1 X orientation angle, node 7, rad
        221    3.288E-01,  2.237E-02,  9.441E-01         F               0         Blade 1 Y orientation angle, node 7, rad
        222    1.392E-02, -9.997E-01,  1.884E-02         F               0         Blade 1 Z orientation angle, node 7, rad
        223    9.501E-01,  7.352E-03, -3.118E-01         F               0         Blade 1 X orientation angle, node 8, rad
        224    3.116E-01,  2.224E-02,  9.499E-01         F               0         Blade 1 Y orientation angle, node 8, rad
        225    1.392E-02, -9.997E-01,  1.884E-02         F               0         Blade 1 Z orientation angle, node 8, rad
        226    9.548E-01,  7.693E-03, -2.972E-01         F               0         Blade 1 X orientation angle, node 9, rad
        227    2.970E-01,  2.212E-02,  9.546E-01         F               0         Blade 1 Y orientation angle, node 9, rad