
Linearized model: Predictions were generated on 12-Jan-2024 at 08:43:17 using OpenFAST, compiled as a 64-bit application using single precision at commit v3.5.1
 linked with  NWTC Subroutine Library; ElastoDyn; InflowWind; AeroDyn; ServoDyn; HydroDyn; MAP++ (<1.20.10>, <Oct-20-2023>)

Description from the FAST input file: CCT-9 Campign 4 model. Input files to be run with OpenFAST 3.5.0. GitHub branch from Lu Wang (https://github.com/luwang00/openfast/tree/dev) compiled on March 7, 2023.

Simulation information:
   Simulation time:                   508.4000 s
   Rotor Speed:                         0.7078 rad/s
   Azimuth:                             3.0771 rad
   Wind Speed:                          8.0000 m/s
   Number of continuous states:        22
   Number of discrete states:           0
   Number of constraint states:         0
   Number of inputs:                 3988
   Number of outputs:                  58
   Jacobians included in this file?    No

Order of continuous states:
   Row/Column Operating Point                     Rotating Frame? Derivative Order Description
   ---------- ---------------                     --------------- ---------------- -----------
          1    5.742E+00                                 F               2         ED Platform horizontal surge translation DOF (internal DOF index = DOF_Sg), m
          2   -4.666E-01                                 F               2         ED Platform horizontal sway translation DOF (internal DOF index = DOF_Sw), m
          3   -1.010E-01                                 F               2         ED Platform vertical heave translation DOF (internal DOF index = DOF_Hv), m
          4    4.537E-02                                 F               2         ED Platform roll tilt rotation DOF (internal DOF index = DOF_R), rad
          5    8.564E-02                                 F               2         ED Platform pitch tilt rotation DOF (internal DOF index = DOF_P), rad
          6    2.941E-03                                 F               2         ED Platform yaw rotation DOF (internal DOF index = DOF_Y), rad
          7    4.673E-01                                 F               2         ED 1st tower fore-aft bending mode DOF (internal DOF index = DOF_TFA1), m
          8    1.762E-01                                 F               2         ED 1st tower side-to-side bending mode DOF (internal DOF index = DOF_TSS1), m
          9    1.464E-03                                 F               2         ED 2nd tower fore-aft bending mode DOF (internal DOF index = DOF_TFA2), m
         10    7.721E-05                                 F               2         ED 2nd tower side-to-side bending mode DOF (internal DOF index = DOF_TSS2), m
         11    1.506E+00                                 F               2         ED Variable speed generator DOF (internal DOF index = DOF_GeAz), rad
         12   -5.393E-03                                 F               2         ED First time derivative of Platform horizontal surge translation DOF (internal DOF index = DOF_Sg), m/s
         13   -9.519E-05                                 F               2         ED First time derivative of Platform horizontal sway translation DOF (internal DOF index = DOF_Sw), m/s
         14    2.858E-03                                 F               2         ED First time derivative of Platform vertical heave translation DOF (internal DOF index = DOF_Hv), m/s
         15   -2.476E-04                                 F               2         ED First time derivative of Platform roll tilt rotation DOF (internal DOF index = DOF_R), rad/s
         16    1.182E-05                                 F               2         ED First time derivative of Platform pitch tilt rotation DOF (internal DOF index = DOF_P), rad/s
         17    3.959E-05                                 F               2         ED First time derivative of Platform yaw rotation DOF (internal DOF index = DOF_Y), rad/s
         18    3.033E-04                                 F               2         ED First time derivative of 1st tower fore-aft bending mode DOF (internal DOF index = DOF_TFA1), m/s
         19   -1.866E-03                                 F               2         ED First time derivative of 1st tower side-to-side bending mode DOF (internal DOF index = DOF_TSS1), m/s
         20   -1.680E-07                                 F               2         ED First time derivative of 2nd tower fore-aft bending mode DOF (internal DOF index = DOF_TFA2), m/s
         21   -1.501E-07                                 F               2         ED First time derivative of 2nd tower side-to-side bending mode DOF (internal DOF index = DOF_TSS2), m/s
         22    7.078E-01                                 F               2         ED First time derivative of Variable speed generator DOF (internal DOF index = DOF_GeAz), rad/s

Order of continuous state derivatives:
   Row/Column Operating Point                     Rotating Frame? Derivative Order Description
   ---------- ---------------                     --------------- ---------------- -----------
          1   -5.393E-03                                 F               2         First time derivative of ED Platform horizontal surge translation DOF (internal DOF index = DOF_Sg), m/s
          2   -9.519E-05                                 F               2         First time derivative of ED Platform horizontal sway translation DOF (internal DOF index = DOF_Sw), m/s
          3    2.858E-03                                 F               2         First time derivative of ED Platform vertical heave translation DOF (internal DOF index = DOF_Hv), m/s
          4   -2.476E-04                                 F               2         First time derivative of ED Platform roll tilt rotation DOF (internal DOF index = DOF_R), rad/s
          5    1.182E-05                                 F               2         First time derivative of ED Platform pitch tilt rotation DOF (internal DOF index = DOF_P), rad/s
          6    3.959E-05                                 F               2         First time derivative of ED Platform yaw rotation DOF (internal DOF index = DOF_Y), rad/s
          7    3.033E-04                                 F               2         First time derivative of ED 1st tower fore-aft bending mode DOF (internal DOF index = DOF_TFA1), m/s
          8   -1.866E-03                                 F               2         First time derivative of ED 1st tower side-to-side bending mode DOF (internal DOF index = DOF_TSS1), m/s
          9   -1.680E-07                                 F               2         First time derivative of ED 2nd tower fore-aft bending mode DOF (internal DOF index = DOF_TFA2), m/s
         10   -1.501E-07                                 F               2         First time derivative of ED 2nd tower side-to-side bending mode DOF (internal DOF index = DOF_TSS2), m/s
         11    7.078E-01                                 F               2         First time derivative of ED Variable speed generator DOF (internal DOF index = DOF_GeAz), rad/s
         12   -1.393E-04                                 F               2         First time derivative of ED First time derivative of Platform horizontal surge translation DOF (internal DOF index = DOF_Sg), m/s/s
         13   -6.320E-04                                 F               2         First time derivative of ED First time derivative of Platform horizontal sway translation DOF (internal DOF index = DOF_Sw), m/s/s
         14   -5.809E-04                                 F               2         First time derivative of ED First time derivative of Platform vertical heave translation DOF (internal DOF index = DOF_Hv), m/s/s
         15    3.663E-05                                 F               2         First time derivative of ED First time derivative of Platform roll tilt rotation DOF (internal DOF index = DOF_R), rad/s/s
         16   -5.373E-06                                 F               2         First time derivative of ED First time derivative of Platform pitch tilt rotation DOF (internal DOF index = DOF_P), rad/s/s
         17   -6.997E-06                                 F               2         First time derivative of ED First time derivative of Platform yaw rotation DOF (internal DOF index = DOF_Y), rad/s/s
         18    9.595E-04                                 F               2         First time derivative of ED First time derivative of 1st tower fore-aft bending mode DOF (internal DOF index = DOF_TFA1), m/s/s
         19    6.644E-05                                 F               2         First time derivative of ED First time derivative of 1st tower side-to-side bending mode DOF (internal DOF index = DOF_TSS1), m/s/s
         20   -6.262E-06                                 F               2         First time derivative of ED First time derivative of 2nd tower fore-aft bending mode DOF (internal DOF index = DOF_TFA2), m/s/s
         21    8.611E-07                                 F               2         First time derivative of ED First time derivative of 2nd tower side-to-side bending mode DOF (internal DOF index = DOF_TSS2), m/s/s
         22    1.313E-04                                 F               2         First time derivative of ED First time derivative of Variable speed generator DOF (internal DOF index = DOF_GeAz), rad/s/s

Order of inputs:
     Column   Operating Point                     Rotating Frame? Derivative Order Description
   ---------- ---------------                     --------------- ---------------- -----------
          1   -1.080E+01                                 F               0         IfW X-component position of node 1 (hub), m
          2    0.000E+00                                 F               0         IfW Y-component position of node 1 (hub), m
          3    1.497E+02                                 F               0         IfW Z-component position of node 1 (hub), m
          4    7.195E+00                                 F               0         IfW X-component position of node 2 (blade 1, node 1), m
          5   -7.556E+00                                 F               0         IfW Y-component position of node 2 (blade 1, node 1), m
          6    1.444E+02                                 F               0         IfW Z-component position of node 2 (blade 1, node 1), m
          7    6.936E+00                                 F               0         IfW X-component position of node 3 (blade 1, node 2), m
          8   -7.580E+00                                 F               0         IfW Y-component position of node 3 (blade 1, node 2), m
          9    1.431E+02                                 F               0         IfW Z-component position of node 3 (blade 1, node 2), m
         10    3.419E+00                                 F               0         IfW X-component position of node 4 (blade 1, node 3), m
         11   -7.909E+00                                 F               0         IfW Y-component position of node 4 (blade 1, node 3), m
         12    1.253E+02                                 F               0         IfW Z-component position of node 4 (blade 1, node 3), m
         13    2.670E+00                                 F               0         IfW X-component position of node 5 (blade 1, node 4), m
         14   -7.979E+00                                 F               0         IfW Y-component position of node 5 (blade 1, node 4), m
         15    1.215E+02                                 F               0         IfW Z-component position of node 5 (blade 1, node 4), m
         16    1.921E+00                                 F               0         IfW X-component position of node 6 (blade 1, node 5), m
         17   -8.049E+00                                 F               0         IfW Y-component position of node 6 (blade 1, node 5), m
         18    1.177E+02                                 F               0         IfW Z-component position of node 6 (blade 1, node 5), m
         19    1.171E+00                                 F               0         IfW X-component position of node 7 (blade 1, node 6), m
         20   -8.119E+00                                 F               0         IfW Y-component position of node 7 (blade 1, node 6), m
         21    1.139E+02                                 F               0         IfW Z-component position of node 7 (blade 1, node 6), m
         22    4.220E-01                                 F               0         IfW X-component position of node 8 (blade 1, node 7), m
         23   -8.189E+00                                 F               0         IfW Y-component position of node 8 (blade 1, node 7), m
         24    1.101E+02                                 F               0         IfW Z-component position of node 8 (blade 1, node 7), m
         25   -3.275E-01                                 F               0         IfW X-component position of node 9 (blade 1, node 8), m
         26   -8.259E+00                                 F               0         IfW Y-component position of node 9 (blade 1, node 8), m
         27    1.063E+02                                 F               0         IfW Z-component position of node 9 (blade 1, node 8), m
         28   -1.077E+00                                 F               0         IfW X-component position of node 10 (blade 1, node 9), m
         29   -8.329E+00                                 F               0         IfW Y-component position of node 10 (blade 1, node 9), m
         30    1.026E+02                                 F               0         IfW Z-component position of node 10 (blade 1, node 9), m
         31   -1.826E+00                                 F               0         IfW X-component position of node 11 (blade 1, node 10), m
         32   -8.399E+00                                 F               0         IfW Y-component position of node 11 (blade 1, node 10), m
         33    9.876E+01                                 F               0         IfW Z-component position of node 11 (blade 1, node 10), m
         34   -2.575E+00                                 F               0         IfW X-component position of node 12 (blade 1, node 11), m
         35   -8.469E+00                                 F               0         IfW Y-component position of node 12 (blade 1, node 11), m
         36    9.497E+01                                 F               0         IfW Z-component position of node 12 (blade 1, node 11), m
         37   -3.325E+00                                 F               0         IfW X-component position of node 13 (blade 1, node 12), m
         38   -8.539E+00                                 F               0         IfW Y-component position of node 13 (blade 1, node 12), m
         39    9.117E+01                                 F               0         IfW Z-component position of node 13 (blade 1, node 12), m
         40   -4.074E+00                                 F               0         IfW X-component position of node 14 (blade 1, node 13), m
         41   -8.609E+00                                 F               0         IfW Y-component position of node 14 (blade 1, node 13), m
         42    8.738E+01                                 F               0         IfW Z-component position of node 14 (blade 1, node 13), m
         43   -4.823E+00                                 F               0         IfW X-component position of node 15 (blade 1, node 14), m
         44   -8.679E+00                                 F               0         IfW Y-component position of node 15 (blade 1, node 14), m
         45    8.358E+01                                 F               0         IfW Z-component position of node 15 (blade 1, node 14), m
         46   -5.573E+00                                 F               0         IfW X-component position of node 16 (blade 1, node 15), m
         47   -8.749E+00                                 F               0         IfW Y-component position of node 16 (blade 1, node 15), m
         48    7.979E+01                                 F               0         IfW Z-component position of node 16 (blade 1, node 15), m
         49   -6.322E+00                                 F               0         IfW X-component position of node 17 (blade 1, node 16), m
         50   -8.819E+00                                 F               0         IfW Y-component position of node 17 (blade 1, node 16), m
         51    7.600E+01                                 F               0         IfW Z-component position of node 17 (blade 1, node 16), m
         52   -7.072E+00                                 F               0         IfW X-component position of node 18 (blade 1, node 17), m
         53   -8.890E+00                                 F               0         IfW Y-component position of node 18 (blade 1, node 17), m
         54    7.220E+01                                 F               0         IfW Z-component position of node 18 (blade 1, node 17), m
         55   -7.821E+00                                 F               0         IfW X-component position of node 19 (blade 1, node 18), m
         56   -8.960E+00                                 F               0         IfW Y-component position of node 19 (blade 1, node 18), m
         57    6.841E+01                                 F               0         IfW Z-component position of node 19 (blade 1, node 18), m
         58   -8.570E+00                                 F               0         IfW X-component position of node 20 (blade 1, node 19), m
         59   -9.030E+00                                 F               0         IfW Y-component position of node 20 (blade 1, node 19), m
         60    6.461E+01                                 F               0         IfW Z-component position of node 20 (blade 1, node 19), m
         61   -9.320E+00                                 F               0         IfW X-component position of node 21 (blade 1, node 20), m
         62   -9.100E+00                                 F               0         IfW Y-component position of node 21 (blade 1, node 20), m
         63    6.082E+01                                 F               0         IfW Z-component position of node 21 (blade 1, node 20), m
         64   -1.007E+01                                 F               0         IfW X-component position of node 22 (blade 1, node 21), m
         65   -9.170E+00                                 F               0         IfW Y-component position of node 22 (blade 1, node 21), m
         66    5.703E+01                                 F               0         IfW Z-component position of node 22 (blade 1, node 21), m
         67   -1.082E+01                                 F               0         IfW X-component position of node 23 (blade 1, node 22), m
         68   -9.240E+00                                 F               0         IfW Y-component position of node 23 (blade 1, node 22), m
         69    5.323E+01                                 F               0         IfW Z-component position of node 23 (blade 1, node 22), m
         70   -1.157E+01                                 F               0         IfW X-component position of node 24 (blade 1, node 23), m
         71   -9.310E+00                                 F               0         IfW Y-component position of node 24 (blade 1, node 23), m
         72    4.944E+01                                 F               0         IfW Z-component position of node 24 (blade 1, node 23), m
         73   -1.232E+01                                 F               0         IfW X-component position of node 25 (blade 1, node 24), m
         74   -9.380E+00                                 F               0         IfW Y-component position of node 25 (blade 1, node 24), m
         75    4.565E+01                                 F               0         IfW Z-component position of node 25 (blade 1, node 24), m
         76   -1.307E+01                                 F               0         IfW X-component position of node 26 (blade 1, node 25), m
         77   -9.450E+00                                 F               0         IfW Y-component position of node 26 (blade 1, node 25), m
         78    4.185E+01                                 F               0         IfW Z-component position of node 26 (blade 1, node 25), m
         79   -1.382E+01                                 F               0         IfW X-component position of node 27 (blade 1, node 26), m
         80   -9.520E+00                                 F               0         IfW Y-component position of node 27 (blade 1, node 26), m
         81    3.806E+01                                 F               0         IfW Z-component position of node 27 (blade 1, node 26), m
         82   -1.457E+01                                 F               0         IfW X-component position of node 28 (blade 1, node 27), m
         83   -9.590E+00                                 F               0         IfW Y-component position of node 28 (blade 1, node 27), m
         84    3.426E+01                                 F               0         IfW Z-component position of node 28 (blade 1, node 27), m
         85   -1.520E+01                                 F               0         IfW X-component position of node 29 (blade 1, node 28), m
         86   -9.650E+00                                 F               0         IfW Y-component position of node 29 (blade 1, node 28), m
         87    3.105E+01                                 F               0         IfW Z-component position of node 29 (blade 1, node 28), m
         88    8.741E+00                                 F               0         IfW X-component position of node 30 (blade 2, node 1), m
         89   -2.608E+00                                 F               0         IfW Y-component position of node 30 (blade 2, node 1), m
         90    1.525E+02                                 F               0         IfW Z-component position of node 30 (blade 2, node 1), m
         91    8.855E+00                                 F               0         IfW X-component position of node 31 (blade 2, node 2), m
         92   -1.440E+00                                 F               0         IfW Y-component position of node 31 (blade 2, node 2), m
         93    1.531E+02                                 F               0         IfW Z-component position of node 31 (blade 2, node 2), m
         94    1.040E+01                                 F               0         IfW X-component position of node 32 (blade 2, node 3), m
         95    1.444E+01                                 F               0         IfW Y-component position of node 32 (blade 2, node 3), m
         96    1.618E+02                                 F               0         IfW Z-component position of node 32 (blade 2, node 3), m
         97    1.073E+01                                 F               0         IfW X-component position of node 33 (blade 2, node 4), m
         98    1.782E+01                                 F               0         IfW Y-component position of node 33 (blade 2, node 4), m
         99    1.636E+02                                 F               0         IfW Z-component position of node 33 (blade 2, node 4), m
        100    1.106E+01                                 F               0         IfW X-component position of node 34 (blade 2, node 5), m
        101    2.121E+01                                 F               0         IfW Y-component position of node 34 (blade 2, node 5), m
        102    1.655E+02                                 F               0         IfW Z-component position of node 34 (blade 2, node 5), m
        103    1.139E+01                                 F               0         IfW X-component position of node 35 (blade 2, node 6), m
        104    2.459E+01                                 F               0         IfW Y-component position of node 35 (blade 2, node 6), m
        105    1.673E+02                                 F               0         IfW Z-component position of node 35 (blade 2, node 6), m
        106    1.172E+01                                 F               0         IfW X-component position of node 36 (blade 2, node 7), m
        107    2.798E+01                                 F               0         IfW Y-component position of node 36 (blade 2, node 7), m
        108    1.692E+02                                 F               0         IfW Z-component position of node 36 (blade 2, node 7), m
        109    1.205E+01                                 F               0         IfW X-component position of node 37 (blade 2, node 8), m
        110    3.136E+01                                 F               0         IfW Y-component position of node 37 (blade 2, node 8), m
        111    1.710E+02                                 F               0         IfW Z-component position of node 37 (blade 2, node 8), m
        112    1.238E+01                                 F               0         IfW X-component position of node 38 (blade 2, node 9), m
        113    3.474E+01                                 F               0         IfW Y-component position of node 38 (blade 2, node 9), m
        114    1.729E+02                                 F               0         IfW Z-component position of node 38 (blade 2, node 9), m
        115    1.271E+01                                 F               0         IfW X-component position of node 39 (blade 2, node 10), m
        116    3.813E+01                                 F               0         IfW Y-component position of node 39 (blade 2, node 10), m
        117    1.747E+02                                 F               0         IfW Z-component position of node 39 (blade 2, node 10), m
        118    1.304E+01                                 F               0         IfW X-component position of node 40 (blade 2, node 11), m
        119    4.151E+01                                 F               0         IfW Y-component position of node 40 (blade 2, node 11), m
        120    1.765E+02                                 F               0         IfW Z-component position of node 40 (blade 2, node 11), m
        121    1.337E+01                                 F               0         IfW X-component position of node 41 (blade 2, node 12), m
        122    4.490E+01                                 F               0         IfW Y-component position of node 41 (blade 2, node 12), m
        123    1.784E+02                                 F               0         IfW Z-component position of node 41 (blade 2, node 12), m
        124    1.370E+01                                 F               0         IfW X-component position of node 42 (blade 2, node 13), m
        125    4.828E+01                                 F               0         IfW Y-component position of node 42 (blade 2, node 13), m
        126    1.802E+02                                 F               0         IfW Z-component position of node 42 (blade 2, node 13), m
        127    1.403E+01                                 F               0         IfW X-component position of node 43 (blade 2, node 14), m
        128    5.166E+01                                 F               0         IfW Y-component position of node 43 (blade 2, node 14), m
        129    1.821E+02                                 F               0         IfW Z-component position of node 43 (blade 2, node 14), m
        130    1.436E+01                                 F               0         IfW X-component position of node 44 (blade 2, node 15), m
        131    5.505E+01                                 F               0         IfW Y-component position of node 44 (blade 2, node 15), m
        132    1.839E+02                                 F               0         IfW Z-component position of node 44 (blade 2, node 15), m
        133    1.469E+01                                 F               0         IfW X-component position of node 45 (blade 2, node 16), m
        134    5.843E+01                                 F               0         IfW Y-component position of node 45 (blade 2, node 16), m
        135    1.858E+02                                 F               0         IfW Z-component position of node 45 (blade 2, node 16), m
        136    1.502E+01                                 F               0         IfW X-component position of node 46 (blade 2, node 17), m
        137    6.181E+01                                 F               0         IfW Y-component position of node 46 (blade 2, node 17), m
        138    1.876E+02                                 F               0         IfW Z-component position of node 46 (blade 2, node 17), m
        139    1.535E+01                                 F               0         IfW X-component position of node 47 (blade 2, node 18), m
        140    6.520E+01                                 F               0         IfW Y-component position of node 47 (blade 2, node 18), m
        141    1.895E+02                                 F               0         IfW Z-component position of node 47 (blade 2, node 18), m
        142    1.568E+01                                 F               0         IfW X-component position of node 48 (blade 2, node 19), m
        143    6.858E+01                                 F               0         IfW Y-component position of node 48 (blade 2, node 19), m
        144    1.913E+02                                 F               0         IfW Z-component position of node 48 (blade 2, node 19), m