
Linearized model: Predictions were generated on 12-Jan-2024 at 08:43:17 using OpenFAST, compiled as a 64-bit application using single precision at commit v3.5.1
 linked with  NWTC Subroutine Library; ElastoDyn; InflowWind; AeroDyn; ServoDyn; HydroDyn; MAP++ (<1.20.10>, <Oct-20-2023>)

Description from the FAST input file: CCT-9 Campign 4 model. Input files to be run with OpenFAST 3.5.0. GitHub branch from Lu Wang (https://github.com/luwang00/openfast/tree/dev) compiled on March 7, 2023.

Simulation information:
   Simulation time:                   508.1500 s
   Rotor Speed:                         0.7078 rad/s
   Azimuth:                             2.9001 rad
   Wind Speed:                          8.0000 m/s
   Number of continuous states:         0
   Number of discrete states:           0
   Number of constraint states:         0
   Number of inputs:                  303
   Number of outputs:                   1
   Jacobians included in this file?    No

Order of inputs:
     Column   Operating Point                     Rotating Frame? Derivative Order Description
   ---------- ---------------                     --------------- ---------------- -----------
          1   -1.080E+01                                 F               0         X-component position of node 1 (hub), m
          2    0.000E+00                                 F               0         Y-component position of node 1 (hub), m
          3    1.497E+02                                 F               0         Z-component position of node 1 (hub), m
          4    7.225E+00                                 F               0         X-component position of node 2 (blade 1, node 1), m
          5   -8.539E+00                                 F               0         Y-component position of node 2 (blade 1, node 1), m
          6    1.445E+02                                 F               0         Z-component position of node 2 (blade 1, node 1), m
          7    6.974E+00                                 F               0         X-component position of node 3 (blade 1, node 2), m
          8   -8.797E+00                                 F               0         Y-component position of node 3 (blade 1, node 2), m
          9    1.432E+02                                 F               0         Z-component position of node 3 (blade 1, node 2), m
         10    3.555E+00                                 F               0         X-component position of node 4 (blade 1, node 3), m
         11   -1.231E+01                                 F               0         Y-component position of node 4 (blade 1, node 3), m
         12    1.258E+02                                 F               0         Z-component position of node 4 (blade 1, node 3), m
         13    2.826E+00                                 F               0         X-component position of node 5 (blade 1, node 4), m
         14   -1.306E+01                                 F               0         Y-component position of node 5 (blade 1, node 4), m
         15    1.220E+02                                 F               0         Z-component position of node 5 (blade 1, node 4), m
         16    2.097E+00                                 F               0         X-component position of node 6 (blade 1, node 5), m
         17   -1.381E+01                                 F               0         Y-component position of node 6 (blade 1, node 5), m
         18    1.183E+02                                 F               0         Z-component position of node 6 (blade 1, node 5), m
         19    1.369E+00                                 F               0         X-component position of node 7 (blade 1, node 6), m
         20   -1.456E+01                                 F               0         Y-component position of node 7 (blade 1, node 6), m
         21    1.146E+02                                 F               0         Z-component position of node 7 (blade 1, node 6), m
         22    6.403E-01                                 F               0         X-component position of node 8 (blade 1, node 7), m
         23   -1.531E+01                                 F               0         Y-component position of node 8 (blade 1, node 7), m
         24    1.109E+02                                 F               0         Z-component position of node 8 (blade 1, node 7), m
         25   -8.840E-02                                 F               0         X-component position of node 9 (blade 1, node 8), m
         26   -1.606E+01                                 F               0         Y-component position of node 9 (blade 1, node 8), m
         27    1.071E+02                                 F               0         Z-component position of node 9 (blade 1, node 8), m
         28   -8.169E-01                                 F               0         X-component position of node 10 (blade 1, node 9), m
         29   -1.681E+01                                 F               0         Y-component position of node 10 (blade 1, node 9), m
         30    1.034E+02                                 F               0         Z-component position of node 10 (blade 1, node 9), m
         31   -1.545E+00                                 F               0         X-component position of node 11 (blade 1, node 10), m
         32   -1.756E+01                                 F               0         Y-component position of node 11 (blade 1, node 10), m
         33    9.970E+01                                 F               0         Z-component position of node 11 (blade 1, node 10), m
         34   -2.274E+00                                 F               0         X-component position of node 12 (blade 1, node 11), m
         35   -1.831E+01                                 F               0         Y-component position of node 12 (blade 1, node 11), m
         36    9.598E+01                                 F               0         Z-component position of node 12 (blade 1, node 11), m
         37   -3.003E+00                                 F               0         X-component position of node 13 (blade 1, node 12), m
         38   -1.906E+01                                 F               0         Y-component position of node 13 (blade 1, node 12), m
         39    9.225E+01                                 F               0         Z-component position of node 13 (blade 1, node 12), m
         40   -3.731E+00                                 F               0         X-component position of node 14 (blade 1, node 13), m
         41   -1.981E+01                                 F               0         Y-component position of node 14 (blade 1, node 13), m
         42    8.853E+01                                 F               0         Z-component position of node 14 (blade 1, node 13), m
         43   -4.460E+00                                 F               0         X-component position of node 15 (blade 1, node 14), m
         44   -2.056E+01                                 F               0         Y-component position of node 15 (blade 1, node 14), m
         45    8.481E+01                                 F               0         Z-component position of node 15 (blade 1, node 14), m
         46   -5.188E+00                                 F               0         X-component position of node 16 (blade 1, node 15), m
         47   -2.131E+01                                 F               0         Y-component position of node 16 (blade 1, node 15), m
         48    8.108E+01                                 F               0         Z-component position of node 16 (blade 1, node 15), m
         49   -5.917E+00                                 F               0         X-component position of node 17 (blade 1, node 16), m
         50   -2.206E+01                                 F               0         Y-component position of node 17 (blade 1, node 16), m
         51    7.736E+01                                 F               0         Z-component position of node 17 (blade 1, node 16), m
         52   -6.645E+00                                 F               0         X-component position of node 18 (blade 1, node 17), m
         53   -2.281E+01                                 F               0         Y-component position of node 18 (blade 1, node 17), m
         54    7.363E+01                                 F               0         Z-component position of node 18 (blade 1, node 17), m
         55   -7.374E+00                                 F               0         X-component position of node 19 (blade 1, node 18), m
         56   -2.356E+01                                 F               0         Y-component position of node 19 (blade 1, node 18), m
         57    6.991E+01                                 F               0         Z-component position of node 19 (blade 1, node 18), m
         58   -8.103E+00                                 F               0         X-component position of node 20 (blade 1, node 19), m
         59   -2.430E+01                                 F               0         Y-component position of node 20 (blade 1, node 19), m
         60    6.619E+01                                 F               0         Z-component position of node 20 (blade 1, node 19), m
         61   -8.831E+00                                 F               0         X-component position of node 21 (blade 1, node 20), m
         62   -2.505E+01                                 F               0         Y-component position of node 21 (blade 1, node 20), m
         63    6.246E+01                                 F               0         Z-component position of node 21 (blade 1, node 20), m
         64   -9.560E+00                                 F               0         X-component position of node 22 (blade 1, node 21), m
         65   -2.580E+01                                 F               0         Y-component position of node 22 (blade 1, node 21), m
         66    5.874E+01                                 F               0         Z-component position of node 22 (blade 1, node 21), m
         67   -1.029E+01                                 F               0         X-component position of node 23 (blade 1, node 22), m
         68   -2.655E+01                                 F               0         Y-component position of node 23 (blade 1, node 22), m
         69    5.501E+01                                 F               0         Z-component position of node 23 (blade 1, node 22), m
         70   -1.102E+01                                 F               0         X-component position of node 24 (blade 1, node 23), m
         71   -2.730E+01                                 F               0         Y-component position of node 24 (blade 1, node 23), m
         72    5.129E+01                                 F               0         Z-component position of node 24 (blade 1, node 23), m
         73   -1.175E+01                                 F               0         X-component position of node 25 (blade 1, node 24), m
         74   -2.805E+01                                 F               0         Y-component position of node 25 (blade 1, node 24), m
         75    4.757E+01                                 F               0         Z-component position of node 25 (blade 1, node 24), m
         76   -1.247E+01                                 F               0         X-component position of node 26 (blade 1, node 25), m
         77   -2.880E+01                                 F               0         Y-component position of node 26 (blade 1, node 25), m
         78    4.384E+01                                 F               0         Z-component position of node 26 (blade 1, node 25), m
         79   -1.320E+01                                 F               0         X-component position of node 27 (blade 1, node 26), m
         80   -2.955E+01                                 F               0         Y-component position of node 27 (blade 1, node 26), m
         81    4.012E+01                                 F               0         Z-component position of node 27 (blade 1, node 26), m
         82   -1.393E+01                                 F               0         X-component position of node 28 (blade 1, node 27), m
         83   -3.030E+01                                 F               0         Y-component position of node 28 (blade 1, node 27), m
         84    3.640E+01                                 F               0         Z-component position of node 28 (blade 1, node 27), m
         85   -1.455E+01                                 F               0         X-component position of node 29 (blade 1, node 28), m
         86   -3.094E+01                                 F               0         Y-component position of node 29 (blade 1, node 28), m
         87    3.324E+01                                 F               0         Z-component position of node 29 (blade 1, node 28), m
         88    8.564E+00                                 F               0         X-component position of node 30 (blade 2, node 1), m
         89   -2.222E+00                                 F               0         Y-component position of node 30 (blade 2, node 1), m
         90    1.516E+02                                 F               0         Z-component position of node 30 (blade 2, node 1), m
         91    8.635E+00                                 F               0         X-component position of node 31 (blade 2, node 2), m
         92   -9.584E-01                                 F               0         Y-component position of node 31 (blade 2, node 2), m
         93    1.521E+02                                 F               0         Z-component position of node 31 (blade 2, node 2), m
         94    9.603E+00                                 F               0         X-component position of node 32 (blade 2, node 3), m
         95    1.622E+01                                 F               0         Y-component position of node 32 (blade 2, node 3), m
         96    1.578E+02                                 F               0         Z-component position of node 32 (blade 2, node 3), m
         97    9.809E+00                                 F               0         X-component position of node 33 (blade 2, node 4), m
         98    1.988E+01                                 F               0         Y-component position of node 33 (blade 2, node 4), m
         99    1.591E+02                                 F               0         Z-component position of node 33 (blade 2, node 4), m
        100    1.002E+01                                 F               0         X-component position of node 34 (blade 2, node 5), m
        101    2.354E+01                                 F               0         Y-component position of node 34 (blade 2, node 5), m
        102    1.603E+02                                 F               0         Z-component position of node 34 (blade 2, node 5), m
        103    1.022E+01                                 F               0         X-component position of node 35 (blade 2, node 6), m
        104    2.720E+01                                 F               0         Y-component position of node 35 (blade 2, node 6), m
        105    1.615E+02                                 F               0         Z-component position of node 35 (blade 2, node 6), m
        106    1.043E+01                                 F               0         X-component position of node 36 (blade 2, node 7), m
        107    3.086E+01                                 F               0         Y-component position of node 36 (blade 2, node 7), m
        108    1.628E+02                                 F               0         Z-component position of node 36 (blade 2, node 7), m
        109    1.063E+01                                 F               0         X-component position of node 37 (blade 2, node 8), m
        110    3.453E+01                                 F               0         Y-component position of node 37 (blade 2, node 8), m
        111    1.640E+02                                 F               0         Z-component position of node 37 (blade 2, node 8), m
        112    1.084E+01                                 F               0         X-component position of node 38 (blade 2, node 9), m
        113    3.819E+01                                 F               0         Y-component position of node 38 (blade 2, node 9), m
        114    1.652E+02                                 F               0         Z-component position of node 38 (blade 2, node 9), m
        115    1.105E+01                                 F               0         X-component position of node 39 (blade 2, node 10), m
        116    4.185E+01                                 F               0         Y-component position of node 39 (blade 2, node 10), m
        117    1.665E+02                                 F               0         Z-component position of node 39 (blade 2, node 10), m
        118    1.125E+01                                 F               0         X-component position of node 40 (blade 2, node 11), m
        119    4.551E+01                                 F               0         Y-component position of node 40 (blade 2, node 11), m
        120    1.677E+02                                 F               0         Z-component position of node 40 (blade 2, node 11), m
        121    1.146E+01                                 F               0         X-component position of node 41 (blade 2, node 12), m
        122    4.917E+01                                 F               0         Y-component position of node 41 (blade 2, node 12), m
        123    1.689E+02                                 F               0         Z-component position of node 41 (blade 2, node 12), m
        124    1.166E+01                                 F               0         X-component position of node 42 (blade 2, node 13), m
        125    5.283E+01                                 F               0         Y-component position of node 42 (blade 2, node 13), m
        126    1.701E+02                                 F               0         Z-component position of node 42 (blade 2, node 13), m
        127    1.187E+01                                 F               0         X-component position of node 43 (blade 2, node 14), m
        128    5.649E+01                                 F               0         Y-component position of node 43 (blade 2, node 14), m
        129    1.714E+02                                 F               0         Z-component position of node 43 (blade 2, node 14), m
        130    1.208E+01                                 F               0         X-component position of node 44 (blade 2, node 15), m
        131    6.015E+01                                 F               0         Y-component position of node 44 (blade 2, node 15), m
        132    1.726E+02                                 F               0         Z-component position of node 44 (blade 2, node 15), m
        133    1.228E+01                                 F               0         X-component position of node 45 (blade 2, node 16), m
        134    6.381E+01                                 F               0         Y-component position of node 45 (blade 2, node 16), m
        135    1.738E+02                                 F               0         Z-component position of node 45 (blade 2, node 16), m
        136    1.249E+01                                 F               0         X-component position of node 46 (blade 2, node 17), m
        137    6.747E+01                                 F               0         Y-component position of node 46 (blade 2, node 17), m
        138    1.751E+02                                 F               0         Z-component position of node 46 (blade 2, node 17), m
        139    1.270E+01                                 F               0         X-component position of node 47 (blade 2, node 18), m
        140    7.113E+01                                 F               0         Y-component position of node 47 (blade 2, node 18), m
        141    1.763E+02                                 F               0         Z-component position of node 47 (blade 2, node 18), m
        142    1.290E+01                                 F               0         X-component position of node 48 (blade 2, node 19), m
        143    7.479E+01                                 F               0         Y-component position of node 48 (blade 2, node 19), m
        144    1.775E+02                                 F               0         Z-component position of node 48 (blade 2, node 19), m
        145    1.311E+01                                 F               0         X-component position of node 49 (blade 2, node 20), m
        146    7.845E+01                                 F               0         Y-component position of node 49 (blade 2, node 20), m
        147    1.788E+02                                 F               0         Z-component position of node 49 (blade 2, node 20), m
        148    1.331E+01                                 F               0         X-component position of node 50 (blade 2, node 21), m
        149    8.211E+01                                 F               0         Y-component position of node 50 (blade 2, node 21), m
        150    1.800E+02                                 F               0         Z-component position of node 50 (blade 2, node 21), m
        151    1.352E+01                                 F               0         X-component position of node 51 (blade 2, node 22), m
        152    8.577E+01                                 F               0         Y-component position of node 51 (blade 2, node 22), m
        153    1.812E+02                                 F               0         Z-component position of node 51 (blade 2, node 22), m
        154    1.373E+01                                 F               0         X-component position of node 52 (blade 2, node 23), m
        155    8.943E+01                                 F               0         Y-component position of node 52 (blade 2, node 23), m
        156    1.825E+02                                 F               0         Z-component position of node 52 (blade 2, node 23), m
        157    1.393E+01                                 F               0         X-component position of node 53 (blade 2, node 24), m
        158    9.309E+01                                 F               0         Y-component position of node 53 (blade 2, node 24), m
        159    1.837E+02                                 F               0         Z-component position of node 53 (blade 2, node 24), m
        160    1.414E+01                                 F               0         X-component position of node 54 (blade 2, node 25), m
        161    9.675E+01                                 F               0         Y-component position of node 54 (blade 2, node 25), m
        162    1.849E+02                                 F               0         Z-component position of node 54 (blade 2, node 25), m
        163    1.434E+01                                 F               0         X-component position of node 55 (blade 2, node 26), m
        164    1.004E+02                                 F               0         Y-component position of node 55 (blade 2, node 26), m
        165    1.862E+02                                 F               0         Z-component position of node 55 (blade 2, node 26), m
        166    1.455E+01                                 F               0         X-component position of node 56 (blade 2, node 27), m
        167    1.041E+02                                 F               0         Y-component position of node 56 (blade 2, node 27), m
        168    1.874E+02                                 F               0         Z-component position of node 56 (blade 2, node 27), m
        169    1.473E+01                                 F               0         X-component position of node 57 (blade 2, node 28), m
        170    1.072E+02                                 F               0         Y-component position of node 57 (blade 2, node 28), m
        171    1.884E+02                                 F               0         Z-component position of node 57 (blade 2, node 28), m
        172    9.017E+00                                 F               0         X-component position of node 58 (blade 3, node 1), m
        173   -1.164E+01                                 F               0         Y-component position of node 58 (blade 3, node 1), m
        174    1.534E+02                                 F               0         Z-component position of node 58 (blade 3, node 1), m
        175    9.198E+00                                 F               0         X-component position of node 59 (blade 3, node 2), m
        176   -1.264E+01                                 F               0         Y-component position of node 59 (blade 3, node 2), m
        177    1.543E+02                                 F               0         Z-component position of node 59 (blade 3, node 2), m
        178    1.165E+01                                 F               0         X-component position of node 60 (blade 3, node 3), m
        179   -2.630E+01                                 F               0         Y-component position of node 60 (blade 3, node 3), m
        180    1.660E+02                                 F               0         Z-component position of node 60 (blade 3, node 3), m
        181    1.217E+01                                 F               0         X-component position of node 61 (blade 3, node 4), m
        182   -2.921E+01                                 F               0         Y-component position of node 61 (blade 3, node 4), m
        183    1.685E+02                                 F               0         Z-component position of node 61 (blade 3, node 4), m
        184    1.269E+01                                 F               0         X-component position of node 62 (blade 3, node 5), m
        185   -3.213E+01                                 F               0         Y-component position of node 62 (blade 3, node 5), m
        186    1.710E+02                                 F               0         Z-component position of node 62 (blade 3, node 5), m
        187    1.322E+01                                 F               0         X-component position of node 63 (blade 3, node 6), m
        188   -3.504E+01                                 F               0         Y-component position of node 63 (blade 3, node 6), m
        189    1.735E+02                                 F               0         Z-component position of node 63 (blade 3, node 6), m
        190    1.374E+01                                 F               0         X-component position of node 64 (blade 3, node 7), m
        191   -3.795E+01                                 F               0         Y-component position of node 64 (blade 3, node 7), m
        192    1.760E+02                                 F               0         Z-component position of node 64 (blade 3, node 7), m
        193    1.426E+01                                 F               0         X-component position of node 65 (blade 3, node 8), m
        194   -4.086E+01                                 F               0         Y-component position of node 65 (blade 3, node 8), m
        195    1.785E+02                                 F               0         Z-component position of node 65 (blade 3, node 8), m
        196    1.478E+01                                 F               0         X-component position of node 66 (blade 3, node 9), m
        197   -4.377E+01                                 F               0         Y-component position of node 66 (blade 3, node 9), m
        198    1.809E+02                                 F               0         Z-component position of node 66 (blade 3, node 9), m
        199    1.531E+01                                 F               0         X-component position of node 67 (blade 3, node 10), m
        200   -4.668E+01                                 F               0         Y-component position of node 67 (blade 3, node 10), m
        201    1.834E+02                                 F               0         Z-component position of node 67 (blade 3, node 10), m
        202    1.583E+01                                 F               0         X-component position of node 68 (blade 3, node 11), m
        203   -4.959E+01                                 F               0         Y-component position of node 68 (blade 3, node 11), m
        204    1.859E+02                                 F               0         Z-component position of node 68 (blade 3, node 11), m
        205    1.635E+01                                 F               0         X-component position of node 69 (blade 3, node 12), m
        206   -5.250E+01                                 F               0         Y-component position of node 69 (blade 3, node 12), m
        207    1.884E+02                                 F               0         Z-component position of node 69 (blade 3, node 12), m
        208    1.687E+01                                 F               0         X-component position of node 70 (blade 3, node 13), m
        209   -5.541E+01                                 F               0         Y-component position of node 70 (blade 3, node 13), m
        210    1.909E+02                                 F               0         Z-component position of node 70 (blade 3, node 13), m
        211    1.740E+01                                 F               0         X-component position of node 71 (blade 3, node 14), m