
Linearized model: Predictions were generated on 12-Jan-2024 at 08:43:17 using OpenFAST, compiled as a 64-bit application using single precision at commit v3.5.1
 linked with  NWTC Subroutine Library; ElastoDyn; InflowWind; AeroDyn; ServoDyn; HydroDyn; MAP++ (<1.20.10>, <Oct-20-2023>)

Description from the FAST input file: CCT-9 Campign 4 model. Input files to be run with OpenFAST 3.5.0. GitHub branch from Lu Wang (https://github.com/luwang00/openfast/tree/dev) compiled on March 7, 2023.

Simulation information:
   Simulation time:                   504.4500 s
   Rotor Speed:                         0.7074 rad/s
   Azimuth:                             0.2822 rad
   Wind Speed:                          8.0000 m/s
   Number of continuous states:        22
   Number of discrete states:           0
   Number of constraint states:         0
   Number of inputs:                 3988
   Number of outputs:                  58
   Jacobians included in this file?    No

Order of continuous states:
   Row/Column Operating Point                     Rotating Frame? Derivative Order Description
   ---------- ---------------                     --------------- ---------------- -----------
          1    5.763E+00                                 F               2         ED Platform horizontal surge translation DOF (internal DOF index = DOF_Sg), m
          2   -4.708E-01                                 F               2         ED Platform horizontal sway translation DOF (internal DOF index = DOF_Sw), m
          3   -1.129E-01                                 F               2         ED Platform vertical heave translation DOF (internal DOF index = DOF_Hv), m
          4    4.649E-02                                 F               2         ED Platform roll tilt rotation DOF (internal DOF index = DOF_R), rad
          5    8.560E-02                                 F               2         ED Platform pitch tilt rotation DOF (internal DOF index = DOF_P), rad
          6    2.756E-03                                 F               2         ED Platform yaw rotation DOF (internal DOF index = DOF_Y), rad
          7    4.676E-01                                 F               2         ED 1st tower fore-aft bending mode DOF (internal DOF index = DOF_TFA1), m
          8    1.823E-01                                 F               2         ED 1st tower side-to-side bending mode DOF (internal DOF index = DOF_TSS1), m
          9    1.461E-03                                 F               2         ED 2nd tower fore-aft bending mode DOF (internal DOF index = DOF_TFA2), m
         10    8.102E-05                                 F               2         ED 2nd tower side-to-side bending mode DOF (internal DOF index = DOF_TSS2), m
         11    4.995E+00                                 F               2         ED Variable speed generator DOF (internal DOF index = DOF_GeAz), rad
         12   -5.028E-03                                 F               2         ED First time derivative of Platform horizontal surge translation DOF (internal DOF index = DOF_Sg), m/s
         13    1.764E-03                                 F               2         ED First time derivative of Platform horizontal sway translation DOF (internal DOF index = DOF_Sw), m/s
         14    2.258E-03                                 F               2         ED First time derivative of Platform vertical heave translation DOF (internal DOF index = DOF_Hv), m/s
         15   -2.637E-04                                 F               2         ED First time derivative of Platform roll tilt rotation DOF (internal DOF index = DOF_R), rad/s
         16    8.852E-07                                 F               2         ED First time derivative of Platform pitch tilt rotation DOF (internal DOF index = DOF_P), rad/s
         17    5.158E-05                                 F               2         ED First time derivative of Platform yaw rotation DOF (internal DOF index = DOF_Y), rad/s
         18   -4.354E-04                                 F               2         ED First time derivative of 1st tower fore-aft bending mode DOF (internal DOF index = DOF_TFA1), m/s
         19   -1.412E-03                                 F               2         ED First time derivative of 1st tower side-to-side bending mode DOF (internal DOF index = DOF_TSS1), m/s
         20    9.639E-07                                 F               2         ED First time derivative of 2nd tower fore-aft bending mode DOF (internal DOF index = DOF_TFA2), m/s
         21   -9.591E-07                                 F               2         ED First time derivative of 2nd tower side-to-side bending mode DOF (internal DOF index = DOF_TSS2), m/s
         22    7.074E-01                                 F               2         ED First time derivative of Variable speed generator DOF (internal DOF index = DOF_GeAz), rad/s

Order of continuous state derivatives:
   Row/Column Operating Point                     Rotating Frame? Derivative Order Description
   ---------- ---------------                     --------------- ---------------- -----------
          1   -5.028E-03                                 F               2         First time derivative of ED Platform horizontal surge translation DOF (internal DOF index = DOF_Sg), m/s
          2    1.764E-03                                 F               2         First time derivative of ED Platform horizontal sway translation DOF (internal DOF index = DOF_Sw), m/s
          3    2.258E-03                                 F               2         First time derivative of ED Platform vertical heave translation DOF (internal DOF index = DOF_Hv), m/s
          4   -2.637E-04                                 F               2         First time derivative of ED Platform roll tilt rotation DOF (internal DOF index = DOF_R), rad/s
          5    8.852E-07                                 F               2         First time derivative of ED Platform pitch tilt rotation DOF (internal DOF index = DOF_P), rad/s
          6    5.158E-05                                 F               2         First time derivative of ED Platform yaw rotation DOF (internal DOF index = DOF_Y), rad/s
          7   -4.354E-04                                 F               2         First time derivative of ED 1st tower fore-aft bending mode DOF (internal DOF index = DOF_TFA1), m/s
          8   -1.412E-03                                 F               2         First time derivative of ED 1st tower side-to-side bending mode DOF (internal DOF index = DOF_TSS1), m/s
          9    9.639E-07                                 F               2         First time derivative of ED 2nd tower fore-aft bending mode DOF (internal DOF index = DOF_TFA2), m/s
         10   -9.591E-07                                 F               2         First time derivative of ED 2nd tower side-to-side bending mode DOF (internal DOF index = DOF_TSS2), m/s
         11    7.074E-01                                 F               2         First time derivative of ED Variable speed generator DOF (internal DOF index = DOF_GeAz), rad/s
         12   -1.439E-04                                 F               2         First time derivative of ED First time derivative of Platform horizontal surge translation DOF (internal DOF index = DOF_Sg), m/s/s
         13   -1.226E-04                                 F               2         First time derivative of ED First time derivative of Platform horizontal sway translation DOF (internal DOF index = DOF_Sw), m/s/s
         14    7.172E-04                                 F               2         First time derivative of ED First time derivative of Platform vertical heave translation DOF (internal DOF index = DOF_Hv), m/s/s
         15   -3.948E-05                                 F               2         First time derivative of ED First time derivative of Platform roll tilt rotation DOF (internal DOF index = DOF_R), rad/s/s
         16    4.096E-06                                 F               2         First time derivative of ED First time derivative of Platform pitch tilt rotation DOF (internal DOF index = DOF_P), rad/s/s
         17    1.872E-07                                 F               2         First time derivative of ED First time derivative of Platform yaw rotation DOF (internal DOF index = DOF_Y), rad/s/s
         18    2.254E-04                                 F               2         First time derivative of ED First time derivative of 1st tower fore-aft bending mode DOF (internal DOF index = DOF_TFA1), m/s/s
         19   -1.915E-04                                 F               2         First time derivative of ED First time derivative of 1st tower side-to-side bending mode DOF (internal DOF index = DOF_TSS1), m/s/s
         20   -3.206E-06                                 F               2         First time derivative of ED First time derivative of 2nd tower fore-aft bending mode DOF (internal DOF index = DOF_TFA2), m/s/s
         21   -6.581E-07                                 F               2         First time derivative of ED First time derivative of 2nd tower side-to-side bending mode DOF (internal DOF index = DOF_TSS2), m/s/s
         22   -4.597E-05                                 F               2         First time derivative of ED First time derivative of Variable speed generator DOF (internal DOF index = DOF_GeAz), rad/s/s

Order of inputs:
     Column   Operating Point                     Rotating Frame? Derivative Order Description
   ---------- ---------------                     --------------- ---------------- -----------
          1   -1.080E+01                                 F               0         IfW X-component position of node 1 (hub), m
          2    0.000E+00                                 F               0         IfW Y-component position of node 1 (hub), m
          3    1.497E+02                                 F               0         IfW Z-component position of node 1 (hub), m
          4    9.317E+00                                 F               0         IfW X-component position of node 2 (blade 1, node 1), m
          5   -9.427E+00                                 F               0         IfW Y-component position of node 2 (blade 1, node 1), m
          6    1.550E+02                                 F               0         IfW Z-component position of node 2 (blade 1, node 1), m
          7    9.566E+00                                 F               0         IfW X-component position of node 3 (blade 1, node 2), m
          8   -9.859E+00                                 F               0         IfW Y-component position of node 3 (blade 1, node 2), m
          9    1.562E+02                                 F               0         IfW Z-component position of node 3 (blade 1, node 2), m
         10    1.295E+01                                 F               0         IfW X-component position of node 4 (blade 1, node 3), m
         11   -1.574E+01                                 F               0         IfW Y-component position of node 4 (blade 1, node 3), m
         12    1.731E+02                                 F               0         IfW Z-component position of node 4 (blade 1, node 3), m
         13    1.368E+01                                 F               0         IfW X-component position of node 5 (blade 1, node 4), m
         14   -1.699E+01                                 F               0         IfW Y-component position of node 5 (blade 1, node 4), m
         15    1.766E+02                                 F               0         IfW Z-component position of node 5 (blade 1, node 4), m
         16    1.440E+01                                 F               0         IfW X-component position of node 6 (blade 1, node 5), m
         17   -1.824E+01                                 F               0         IfW Y-component position of node 6 (blade 1, node 5), m
         18    1.802E+02                                 F               0         IfW Z-component position of node 6 (blade 1, node 5), m
         19    1.512E+01                                 F               0         IfW X-component position of node 7 (blade 1, node 6), m
         20   -1.949E+01                                 F               0         IfW Y-component position of node 7 (blade 1, node 6), m
         21    1.838E+02                                 F               0         IfW Z-component position of node 7 (blade 1, node 6), m
         22    1.584E+01                                 F               0         IfW X-component position of node 8 (blade 1, node 7), m
         23   -2.075E+01                                 F               0         IfW Y-component position of node 8 (blade 1, node 7), m
         24    1.874E+02                                 F               0         IfW Z-component position of node 8 (blade 1, node 7), m
         25    1.656E+01                                 F               0         IfW X-component position of node 9 (blade 1, node 8), m
         26   -2.200E+01                                 F               0         IfW Y-component position of node 9 (blade 1, node 8), m
         27    1.910E+02                                 F               0         IfW Z-component position of node 9 (blade 1, node 8), m
         28    1.729E+01                                 F               0         IfW X-component position of node 10 (blade 1, node 9), m
         29   -2.325E+01                                 F               0         IfW Y-component position of node 10 (blade 1, node 9), m
         30    1.946E+02                                 F               0         IfW Z-component position of node 10 (blade 1, node 9), m
         31    1.801E+01                                 F               0         IfW X-component position of node 11 (blade 1, node 10), m
         32   -2.450E+01                                 F               0         IfW Y-component position of node 11 (blade 1, node 10), m
         33    1.982E+02                                 F               0         IfW Z-component position of node 11 (blade 1, node 10), m
         34    1.873E+01                                 F               0         IfW X-component position of node 12 (blade 1, node 11), m
         35   -2.576E+01                                 F               0         IfW Y-component position of node 12 (blade 1, node 11), m
         36    2.018E+02                                 F               0         IfW Z-component position of node 12 (blade 1, node 11), m
         37    1.945E+01                                 F               0         IfW X-component position of node 13 (blade 1, node 12), m
         38   -2.701E+01                                 F               0         IfW Y-component position of node 13 (blade 1, node 12), m
         39    2.053E+02                                 F               0         IfW Z-component position of node 13 (blade 1, node 12), m
         40    2.017E+01                                 F               0         IfW X-component position of node 14 (blade 1, node 13), m
         41   -2.826E+01                                 F               0         IfW Y-component position of node 14 (blade 1, node 13), m
         42    2.089E+02                                 F               0         IfW Z-component position of node 14 (blade 1, node 13), m
         43    2.089E+01                                 F               0         IfW X-component position of node 15 (blade 1, node 14), m
         44   -2.951E+01                                 F               0         IfW Y-component position of node 15 (blade 1, node 14), m
         45    2.125E+02                                 F               0         IfW Z-component position of node 15 (blade 1, node 14), m
         46    2.162E+01                                 F               0         IfW X-component position of node 16 (blade 1, node 15), m
         47   -3.077E+01                                 F               0         IfW Y-component position of node 16 (blade 1, node 15), m
         48    2.161E+02                                 F               0         IfW Z-component position of node 16 (blade 1, node 15), m
         49    2.234E+01                                 F               0         IfW X-component position of node 17 (blade 1, node 16), m
         50   -3.202E+01                                 F               0         IfW Y-component position of node 17 (blade 1, node 16), m
         51    2.197E+02                                 F               0         IfW Z-component position of node 17 (blade 1, node 16), m
         52    2.306E+01                                 F               0         IfW X-component position of node 18 (blade 1, node 17), m
         53   -3.327E+01                                 F               0         IfW Y-component position of node 18 (blade 1, node 17), m
         54    2.233E+02                                 F               0         IfW Z-component position of node 18 (blade 1, node 17), m
         55    2.378E+01                                 F               0         IfW X-component position of node 19 (blade 1, node 18), m
         56   -3.452E+01                                 F               0         IfW Y-component position of node 19 (blade 1, node 18), m
         57    2.269E+02                                 F               0         IfW Z-component position of node 19 (blade 1, node 18), m
         58    2.450E+01                                 F               0         IfW X-component position of node 20 (blade 1, node 19), m
         59   -3.578E+01                                 F               0         IfW Y-component position of node 20 (blade 1, node 19), m
         60    2.305E+02                                 F               0         IfW Z-component position of node 20 (blade 1, node 19), m
         61    2.523E+01                                 F               0         IfW X-component position of node 21 (blade 1, node 20), m
         62   -3.703E+01                                 F               0         IfW Y-component position of node 21 (blade 1, node 20), m
         63    2.340E+02                                 F               0         IfW Z-component position of node 21 (blade 1, node 20), m
         64    2.595E+01                                 F               0         IfW X-component position of node 22 (blade 1, node 21), m
         65   -3.828E+01                                 F               0         IfW Y-component position of node 22 (blade 1, node 21), m
         66    2.376E+02                                 F               0         IfW Z-component position of node 22 (blade 1, node 21), m
         67    2.667E+01                                 F               0         IfW X-component position of node 23 (blade 1, node 22), m
         68   -3.954E+01                                 F               0         IfW Y-component position of node 23 (blade 1, node 22), m
         69    2.412E+02                                 F               0         IfW Z-component position of node 23 (blade 1, node 22), m
         70    2.739E+01                                 F               0         IfW X-component position of node 24 (blade 1, node 23), m
         71   -4.079E+01                                 F               0         IfW Y-component position of node 24 (blade 1, node 23), m
         72    2.448E+02                                 F               0         IfW Z-component position of node 24 (blade 1, node 23), m
         73    2.811E+01                                 F               0         IfW X-component position of node 25 (blade 1, node 24), m
         74   -4.204E+01                                 F               0         IfW Y-component position of node 25 (blade 1, node 24), m
         75    2.484E+02                                 F               0         IfW Z-component position of node 25 (blade 1, node 24), m
         76    2.884E+01                                 F               0         IfW X-component position of node 26 (blade 1, node 25), m
         77   -4.329E+01                                 F               0         IfW Y-component position of node 26 (blade 1, node 25), m
         78    2.520E+02                                 F               0         IfW Z-component position of node 26 (blade 1, node 25), m
         79    2.956E+01                                 F               0         IfW X-component position of node 27 (blade 1, node 26), m
         80   -4.455E+01                                 F               0         IfW Y-component position of node 27 (blade 1, node 26), m
         81    2.556E+02                                 F               0         IfW Z-component position of node 27 (blade 1, node 26), m
         82    3.028E+01                                 F               0         IfW X-component position of node 28 (blade 1, node 27), m
         83   -4.580E+01                                 F               0         IfW Y-component position of node 28 (blade 1, node 27), m
         84    2.592E+02                                 F               0         IfW Z-component position of node 28 (blade 1, node 27), m
         85    3.089E+01                                 F               0         IfW X-component position of node 29 (blade 1, node 28), m
         86   -4.686E+01                                 F               0         IfW Y-component position of node 29 (blade 1, node 28), m
         87    2.622E+02                                 F               0         IfW Z-component position of node 29 (blade 1, node 28), m
         88    7.509E+00                                 F               0         IfW X-component position of node 30 (blade 2, node 1), m
         89   -1.127E+01                                 F               0         IfW Y-component position of node 30 (blade 2, node 1), m
         90    1.457E+02                                 F               0         IfW Z-component position of node 30 (blade 2, node 1), m
         91    7.323E+00                                 F               0         IfW X-component position of node 31 (blade 2, node 2), m
         92   -1.215E+01                                 F               0         IfW Y-component position of node 31 (blade 2, node 2), m
         93    1.448E+02                                 F               0         IfW Z-component position of node 31 (blade 2, node 2), m
         94    4.787E+00                                 F               0         IfW X-component position of node 32 (blade 2, node 3), m
         95   -2.409E+01                                 F               0         IfW Y-component position of node 32 (blade 2, node 3), m
         96    1.313E+02                                 F               0         IfW Z-component position of node 32 (blade 2, node 3), m
         97    4.247E+00                                 F               0         IfW X-component position of node 33 (blade 2, node 4), m
         98   -2.663E+01                                 F               0         IfW Y-component position of node 33 (blade 2, node 4), m
         99    1.284E+02                                 F               0         IfW Z-component position of node 33 (blade 2, node 4), m
        100    3.707E+00                                 F               0         IfW X-component position of node 34 (blade 2, node 5), m
        101   -2.917E+01                                 F               0         IfW Y-component position of node 34 (blade 2, node 5), m
        102    1.256E+02                                 F               0         IfW Z-component position of node 34 (blade 2, node 5), m
        103    3.167E+00                                 F               0         IfW X-component position of node 35 (blade 2, node 6), m
        104   -3.171E+01                                 F               0         IfW Y-component position of node 35 (blade 2, node 6), m
        105    1.227E+02                                 F               0         IfW Z-component position of node 35 (blade 2, node 6), m
        106    2.626E+00                                 F               0         IfW X-component position of node 36 (blade 2, node 7), m
        107   -3.426E+01                                 F               0         IfW Y-component position of node 36 (blade 2, node 7), m
        108    1.199E+02                                 F               0         IfW Z-component position of node 36 (blade 2, node 7), m
        109    2.086E+00                                 F               0         IfW X-component position of node 37 (blade 2, node 8), m
        110   -3.680E+01                                 F               0         IfW Y-component position of node 37 (blade 2, node 8), m
        111    1.170E+02                                 F               0         IfW Z-component position of node 37 (blade 2, node 8), m
        112    1.546E+00                                 F               0         IfW X-component position of node 38 (blade 2, node 9), m
        113   -3.934E+01                                 F               0         IfW Y-component position of node 38 (blade 2, node 9), m
        114    1.141E+02                                 F               0         IfW Z-component position of node 38 (blade 2, node 9), m
        115    1.006E+00                                 F               0         IfW X-component position of node 39 (blade 2, node 10), m
        116   -4.188E+01                                 F               0         IfW Y-component position of node 39 (blade 2, node 10), m
        117    1.113E+02                                 F               0         IfW Z-component position of node 39 (blade 2, node 10), m
        118    4.656E-01                                 F               0         IfW X-component position of node 40 (blade 2, node 11), m
        119   -4.443E+01                                 F               0         IfW Y-component position of node 40 (blade 2, node 11), m
        120    1.084E+02                                 F               0         IfW Z-component position of node 40 (blade 2, node 11), m
        121   -7.467E-02                                 F               0         IfW X-component position of node 41 (blade 2, node 12), m
        122   -4.697E+01                                 F               0         IfW Y-component position of node 41 (blade 2, node 12), m
        123    1.055E+02                                 F               0         IfW Z-component position of node 41 (blade 2, node 12), m
        124   -6.149E-01                                 F               0         IfW X-component position of node 42 (blade 2, node 13), m
        125   -4.951E+01                                 F               0         IfW Y-component position of node 42 (blade 2, node 13), m
        126    1.027E+02                                 F               0         IfW Z-component position of node 42 (blade 2, node 13), m
        127   -1.155E+00                                 F               0         IfW X-component position of node 43 (blade 2, node 14), m
        128   -5.205E+01                                 F               0         IfW Y-component position of node 43 (blade 2, node 14), m
        129    9.981E+01                                 F               0         IfW Z-component position of node 43 (blade 2, node 14), m
        130   -1.695E+00                                 F               0         IfW X-component position of node 44 (blade 2, node 15), m
        131   -5.460E+01                                 F               0         IfW Y-component position of node 44 (blade 2, node 15), m
        132    9.694E+01                                 F               0         IfW Z-component position of node 44 (blade 2, node 15), m
        133   -2.236E+00                                 F               0         IfW X-component position of node 45 (blade 2, node 16), m
        134   -5.714E+01                                 F               0         IfW Y-component position of node 45 (blade 2, node 16), m
        135    9.408E+01                                 F               0         IfW Z-component position of node 45 (blade 2, node 16), m
        136   -2.776E+00                                 F               0         IfW X-component position of node 46 (blade 2, node 17), m
        137   -5.968E+01                                 F               0         IfW Y-component position of node 46 (blade 2, node 17), m
        138    9.122E+01                                 F               0         IfW Z-component position of node 46 (blade 2, node 17), m
        139   -3.316E+00                                 F               0         IfW X-component position of node 47 (blade 2, node 18), m
        140   -6.222E+01                                 F               0         IfW Y-component position of node 47 (blade 2, node 18), m
        141    8.835E+01                                 F               0         IfW Z-component position of node 47 (blade 2, node 18), m
        142   -3.856E+00                                 F               0         IfW X-component position of node 48 (blade 2, node 19), m
        143   -6.477E+01                                 F               0         IfW Y-component position of node 48 (blade 2, node 19), m
        144    8.549E+01                                 F               0         IfW Z-component position of node 48 (blade 2, node 19), m