
Linearized model: Predictions were generated on 12-Jan-2024 at 08:43:17 using OpenFAST, compiled as a 64-bit application using single precision at commit v3.5.1
 linked with  NWTC Subroutine Library; ElastoDyn; InflowWind; AeroDyn; ServoDyn; HydroDyn; MAP++ (<1.20.10>, <Oct-20-2023>)

Description from the FAST input file: CCT-9 Campign 4 model. Input files to be run with OpenFAST 3.5.0. GitHub branch from Lu Wang (https://github.com/luwang00/openfast/tree/dev) compiled on March 7, 2023.

Simulation information:
   Simulation time:                   502.2250 s
   Rotor Speed:                         0.7076 rad/s
   Azimuth:                             4.9912 rad
   Wind Speed:                          8.0000 m/s
   Number of continuous states:        22
   Number of discrete states:           0
   Number of constraint states:         0
   Number of inputs:                 1890
   Number of outputs:                  38
   Jacobians included in this file?    No

Order of continuous states:
   Row/Column Operating Point                     Rotating Frame? Derivative Order Description
   ---------- ---------------                     --------------- ---------------- -----------
          1    5.774E+00                                 F               2         Platform horizontal surge translation DOF (internal DOF index = DOF_Sg), m
          2   -4.748E-01                                 F               2         Platform horizontal sway translation DOF (internal DOF index = DOF_Sw), m
          3   -1.160E-01                                 F               2         Platform vertical heave translation DOF (internal DOF index = DOF_Hv), m
          4    4.695E-02                                 F               2         Platform roll tilt rotation DOF (internal DOF index = DOF_R), rad
          5    8.562E-02                                 F               2         Platform pitch tilt rotation DOF (internal DOF index = DOF_P), rad
          6    2.643E-03                                 F               2         Platform yaw rotation DOF (internal DOF index = DOF_Y), rad
          7    4.671E-01                                 F               2         1st tower fore-aft bending mode DOF (internal DOF index = DOF_TFA1), m
          8    1.853E-01                                 F               2         1st tower side-to-side bending mode DOF (internal DOF index = DOF_TSS1), m
          9    1.465E-03                                 F               2         2nd tower fore-aft bending mode DOF (internal DOF index = DOF_TFA2), m
         10    8.206E-05                                 F               2         2nd tower side-to-side bending mode DOF (internal DOF index = DOF_TSS2), m
         11    3.420E+00                                 F               2         Variable speed generator DOF (internal DOF index = DOF_GeAz), rad
         12   -4.627E-03                                 F               2         First time derivative of Platform horizontal surge translation DOF (internal DOF index = DOF_Sg), m/s
         13    1.816E-03                                 F               2         First time derivative of Platform horizontal sway translation DOF (internal DOF index = DOF_Sw), m/s
         14    4.750E-04                                 F               2         First time derivative of Platform vertical heave translation DOF (internal DOF index = DOF_Hv), m/s
         15   -1.417E-04                                 F               2         First time derivative of Platform roll tilt rotation DOF (internal DOF index = DOF_R), rad/s
         16   -8.110E-06                                 F               2         First time derivative of Platform pitch tilt rotation DOF (internal DOF index = DOF_P), rad/s
         17    4.896E-05                                 F               2         First time derivative of Platform yaw rotation DOF (internal DOF index = DOF_Y), rad/s
         18    2.242E-04                                 F               2         First time derivative of 1st tower fore-aft bending mode DOF (internal DOF index = DOF_TFA1), m/s
         19   -1.415E-03                                 F               2         First time derivative of 1st tower side-to-side bending mode DOF (internal DOF index = DOF_TSS1), m/s
         20   -2.105E-06                                 F               2         First time derivative of 2nd tower fore-aft bending mode DOF (internal DOF index = DOF_TFA2), m/s
         21    5.193E-07                                 F               2         First time derivative of 2nd tower side-to-side bending mode DOF (internal DOF index = DOF_TSS2), m/s
         22    7.076E-01                                 F               2         First time derivative of Variable speed generator DOF (internal DOF index = DOF_GeAz), rad/s

Order of continuous state derivatives:
   Row/Column Operating Point                     Rotating Frame? Derivative Order Description
   ---------- ---------------                     --------------- ---------------- -----------
          1   -4.627E-03                                 F               2         First time derivative of Platform horizontal surge translation DOF (internal DOF index = DOF_Sg), m/s
          2    1.816E-03                                 F               2         First time derivative of Platform horizontal sway translation DOF (internal DOF index = DOF_Sw), m/s
          3    4.750E-04                                 F               2         First time derivative of Platform vertical heave translation DOF (internal DOF index = DOF_Hv), m/s
          4   -1.417E-04                                 F               2         First time derivative of Platform roll tilt rotation DOF (internal DOF index = DOF_R), rad/s
          5   -8.110E-06                                 F               2         First time derivative of Platform pitch tilt rotation DOF (internal DOF index = DOF_P), rad/s
          6    4.896E-05                                 F               2         First time derivative of Platform yaw rotation DOF (internal DOF index = DOF_Y), rad/s
          7    2.242E-04                                 F               2         First time derivative of 1st tower fore-aft bending mode DOF (internal DOF index = DOF_TFA1), m/s
          8   -1.415E-03                                 F               2         First time derivative of 1st tower side-to-side bending mode DOF (internal DOF index = DOF_TSS1), m/s
          9   -2.105E-06                                 F               2         First time derivative of 2nd tower fore-aft bending mode DOF (internal DOF index = DOF_TFA2), m/s
         10    5.193E-07                                 F               2         First time derivative of 2nd tower side-to-side bending mode DOF (internal DOF index = DOF_TSS2), m/s
         11    7.076E-01                                 F               2         First time derivative of Variable speed generator DOF (internal DOF index = DOF_GeAz), rad/s
         12   -3.639E-04                                 F               2         First time derivative of First time derivative of Platform horizontal surge translation DOF (internal DOF index = DOF_Sg), m/s/s
         13   -5.899E-05                                 F               2         First time derivative of First time derivative of Platform horizontal sway translation DOF (internal DOF index = DOF_Sw), m/s/s
         14    8.209E-04                                 F               2         First time derivative of First time derivative of Platform vertical heave translation DOF (internal DOF index = DOF_Hv), m/s/s
         15   -6.000E-05                                 F               2         First time derivative of First time derivative of Platform roll tilt rotation DOF (internal DOF index = DOF_R), rad/s/s
         16   -5.743E-06                                 F               2         First time derivative of First time derivative of Platform pitch tilt rotation DOF (internal DOF index = DOF_P), rad/s/s
         17    2.976E-06                                 F               2         First time derivative of First time derivative of Platform yaw rotation DOF (internal DOF index = DOF_Y), rad/s/s
         18    1.236E-03                                 F               2         First time derivative of First time derivative of 1st tower fore-aft bending mode DOF (internal DOF index = DOF_TFA1), m/s/s
         19   -8.876E-05                                 F               2         First time derivative of First time derivative of 1st tower side-to-side bending mode DOF (internal DOF index = DOF_TSS1), m/s/s
         20   -7.258E-06                                 F               2         First time derivative of First time derivative of 2nd tower fore-aft bending mode DOF (internal DOF index = DOF_TFA2), m/s/s
         21   -4.036E-07                                 F               2         First time derivative of First time derivative of 2nd tower side-to-side bending mode DOF (internal DOF index = DOF_TSS2), m/s/s
         22   -4.174E-05                                 F               2         First time derivative of First time derivative of Variable speed generator DOF (internal DOF index = DOF_GeAz), rad/s/s

Order of inputs:
     Column   Operating Point                     Rotating Frame? Derivative Order Description
   ---------- ---------------                     --------------- ---------------- -----------
          1    3.815E+01                                 F               0         Blade 1 X force, node 1, N
          2    9.126E+00                                 F               0         Blade 1 Y force, node 1, N
          3   -3.366E+01                                 F               0         Blade 1 Z force, node 1, N
          4    1.800E+02                                 F               0         Blade 1 X force, node 2, N
          5    1.988E+01                                 F               0         Blade 1 Y force, node 2, N
          6   -8.954E+01                                 F               0         Blade 1 Z force, node 2, N
          7    2.564E+02                                 F               0         Blade 1 X force, node 3, N
          8    8.654E+00                                 F               0         Blade 1 Y force, node 3, N
          9   -6.878E+01                                 F               0         Blade 1 Z force, node 3, N
         10    3.521E+02                                 F               0         Blade 1 X force, node 4, N
         11   -3.895E-01                                 F               0         Blade 1 Y force, node 4, N
         12   -5.776E+01                                 F               0         Blade 1 Z force, node 4, N
         13    4.478E+02                                 F               0         Blade 1 X force, node 5, N
         14   -9.433E+00                                 F               0         Blade 1 Y force, node 5, N
         15   -4.674E+01                                 F               0         Blade 1 Z force, node 5, N
         16    5.435E+02                                 F               0         Blade 1 X force, node 6, N
         17   -1.848E+01                                 F               0         Blade 1 Y force, node 6, N
         18   -3.572E+01                                 F               0         Blade 1 Z force, node 6, N
         19    6.392E+02                                 F               0         Blade 1 X force, node 7, N
         20   -2.752E+01                                 F               0         Blade 1 Y force, node 7, N
         21   -2.470E+01                                 F               0         Blade 1 Z force, node 7, N
         22    7.350E+02                                 F               0         Blade 1 X force, node 8, N
         23   -3.656E+01                                 F               0         Blade 1 Y force, node 8, N
         24   -1.368E+01                                 F               0         Blade 1 Z force, node 8, N
         25    8.307E+02                                 F               0         Blade 1 X force, node 9, N
         26   -4.561E+01                                 F               0         Blade 1 Y force, node 9, N
         27   -2.656E+00                                 F               0         Blade 1 Z force, node 9, N
         28    9.264E+02                                 F               0         Blade 1 X force, node 10, N
         29   -5.465E+01                                 F               0         Blade 1 Y force, node 10, N
         30    8.364E+00                                 F               0         Blade 1 Z force, node 10, N
         31    1.022E+03                                 F               0         Blade 1 X force, node 11, N
         32   -6.369E+01                                 F               0         Blade 1 Y force, node 11, N
         33    1.938E+01                                 F               0         Blade 1 Z force, node 11, N
         34    1.118E+03                                 F               0         Blade 1 X force, node 12, N
         35   -7.274E+01                                 F               0         Blade 1 Y force, node 12, N
         36    3.040E+01                                 F               0         Blade 1 Z force, node 12, N
         37    1.213E+03                                 F               0         Blade 1 X force, node 13, N
         38   -8.178E+01                                 F               0         Blade 1 Y force, node 13, N
         39    4.143E+01                                 F               0         Blade 1 Z force, node 13, N
         40    1.309E+03                                 F               0         Blade 1 X force, node 14, N
         41   -9.083E+01                                 F               0         Blade 1 Y force, node 14, N
         42    5.245E+01                                 F               0         Blade 1 Z force, node 14, N
         43    1.405E+03                                 F               0         Blade 1 X force, node 15, N
         44   -9.987E+01                                 F               0         Blade 1 Y force, node 15, N
         45    6.347E+01                                 F               0         Blade 1 Z force, node 15, N
         46    1.501E+03                                 F               0         Blade 1 X force, node 16, N
         47   -1.089E+02                                 F               0         Blade 1 Y force, node 16, N
         48    7.449E+01                                 F               0         Blade 1 Z force, node 16, N
         49    1.851E+03                                 F               0         Blade 1 X force, node 17, N
         50   -1.361E+02                                 F               0         Blade 1 Y force, node 17, N
         51    9.724E+01                                 F               0         Blade 1 Z force, node 17, N
         52    1.413E+03                                 F               0         Blade 1 X force, node 18, N
         53   -9.971E+01                                 F               0         Blade 1 Y force, node 18, N
         54    6.155E+01                                 F               0         Blade 1 Z force, node 18, N
         55    1.734E+03                                 F               0         Blade 1 X force, node 19, N
         56   -1.154E+02                                 F               0         Blade 1 Y force, node 19, N
         57    5.495E+01                                 F               0         Blade 1 Z force, node 19, N
         58    1.477E+03                                 F               0         Blade 1 X force, node 20, N
         59   -9.294E+01                                 F               0         Blade 1 Y force, node 20, N
         60    3.064E+01                                 F               0         Blade 1 Z force, node 20, N
         61    2.181E+03                                 F               0         Blade 1 X force, node 21, N
         62   -1.283E+02                                 F               0         Blade 1 Y force, node 21, N
         63    1.874E+01                                 F               0         Blade 1 Z force, node 21, N
         64    1.924E+03                                 F               0         Blade 1 X force, node 22, N
         65   -1.058E+02                                 F               0         Blade 1 Y force, node 22, N
         66   -5.561E+00                                 F               0         Blade 1 Z force, node 22, N
         67    1.975E+03                                 F               0         Blade 1 X force, node 23, N
         68   -1.020E+02                                 F               0         Blade 1 Y force, node 23, N
         69   -2.550E+01                                 F               0         Blade 1 Z force, node 23, N
         70    2.062E+03                                 F               0         Blade 1 X force, node 24, N
         71   -9.998E+01                                 F               0         Blade 1 Y force, node 24, N
         72   -4.611E+01                                 F               0         Blade 1 Z force, node 24, N
         73    2.112E+03                                 F               0         Blade 1 X force, node 25, N
         74   -9.617E+01                                 F               0         Blade 1 Y force, node 25, N
         75   -6.597E+01                                 F               0         Blade 1 Z force, node 25, N
         76    2.175E+03                                 F               0         Blade 1 X force, node 26, N
         77   -9.295E+01                                 F               0         Blade 1 Y force, node 26, N
         78   -8.604E+01                                 F               0         Blade 1 Z force, node 26, N
         79    2.605E+03                                 F               0         Blade 1 X force, node 27, N
         80   -1.041E+02                                 F               0         Blade 1 Y force, node 27, N
         81   -1.248E+02                                 F               0         Blade 1 Z force, node 27, N
         82    1.931E+03                                 F               0         Blade 1 X force, node 28, N
         83   -7.216E+01                                 F               0         Blade 1 Y force, node 28, N
         84   -1.074E+02                                 F               0         Blade 1 Z force, node 28, N
         85    2.362E+03                                 F               0         Blade 1 X force, node 29, N
         86   -8.334E+01                                 F               0         Blade 1 Y force, node 29, N
         87   -1.461E+02                                 F               0         Blade 1 Z force, node 29, N
         88    2.009E+03                                 F               0         Blade 1 X force, node 30, N
         89   -6.691E+01                                 F               0         Blade 1 Y force, node 30, N
         90   -1.362E+02                                 F               0         Blade 1 Z force, node 30, N
         91    2.902E+03                                 F               0         Blade 1 X force, node 31, N
         92   -9.021E+01                                 F               0         Blade 1 Y force, node 31, N
         93   -2.160E+02                                 F               0         Blade 1 Z force, node 31, N
         94    2.549E+03                                 F               0         Blade 1 X force, node 32, N
         95   -7.380E+01                                 F               0         Blade 1 Y force, node 32, N
         96   -2.060E+02                                 F               0         Blade 1 Z force, node 32, N
         97    2.611E+03                                 F               0         Blade 1 X force, node 33, N
         98   -7.062E+01                                 F               0         Blade 1 Y force, node 33, N
         99   -2.258E+02                                 F               0         Blade 1 Z force, node 33, N
        100    2.674E+03                                 F               0         Blade 1 X force, node 34, N
        101   -6.746E+01                                 F               0         Blade 1 Y force, node 34, N
        102   -2.457E+02                                 F               0         Blade 1 Z force, node 34, N
        103    2.737E+03                                 F               0         Blade 1 X force, node 35, N
        104   -6.432E+01                                 F               0         Blade 1 Y force, node 35, N
        105   -2.656E+02                                 F               0         Blade 1 Z force, node 35, N
        106    2.798E+03                                 F               0         Blade 1 X force, node 36, N
        107   -6.116E+01                                 F               0         Blade 1 Y force, node 36, N
        108   -2.854E+02                                 F               0         Blade 1 Z force, node 36, N
        109    3.347E+03                                 F               0         Blade 1 X force, node 37, N
        110   -6.755E+01                                 F               0         Blade 1 Y force, node 37, N
        111   -3.581E+02                                 F               0         Blade 1 Z force, node 37, N
        112    2.437E+03                                 F               0         Blade 1 X force, node 38, N
        113   -4.537E+01                                 F               0         Blade 1 Y force, node 38, N
        114   -2.722E+02                                 F               0         Blade 1 Z force, node 38, N
        115    2.987E+03                                 F               0         Blade 1 X force, node 39, N
        116   -5.180E+01                                 F               0         Blade 1 Y force, node 39, N
        117   -3.449E+02                                 F               0         Blade 1 Z force, node 39, N
        118    2.546E+03                                 F               0         Blade 1 X force, node 40, N
        119   -4.104E+01                                 F               0         Blade 1 Y force, node 40, N
        120   -3.034E+02                                 F               0         Blade 1 Z force, node 40, N
        121    3.616E+03                                 F               0         Blade 1 X force, node 41, N
        122   -5.327E+01                                 F               0         Blade 1 Y force, node 41, N
        123   -4.458E+02                                 F               0         Blade 1 Z force, node 41, N
        124    3.175E+03                                 F               0         Blade 1 X force, node 42, N
        125   -4.250E+01                                 F               0         Blade 1 Y force, node 42, N
        126   -4.042E+02                                 F               0         Blade 1 Z force, node 42, N
        127    3.237E+03                                 F               0         Blade 1 X force, node 43, N
        128   -3.939E+01                                 F               0         Blade 1 Y force, node 43, N
        129   -4.239E+02                                 F               0         Blade 1 Z force, node 43, N
        130    3.317E+03                                 F               0         Blade 1 X force, node 44, N
        131   -3.647E+01                                 F               0         Blade 1 Y force, node 44, N
        132   -4.460E+02                                 F               0         Blade 1 Z force, node 44, N
        133    3.345E+03                                 F               0         Blade 1 X force, node 45, N
        134   -3.301E+01                                 F               0         Blade 1 Y force, node 45, N
        135   -4.609E+02                                 F               0         Blade 1 Z force, node 45, N
        136    3.425E+03                                 F               0         Blade 1 X force, node 46, N
        137   -3.011E+01                                 F               0         Blade 1 Y force, node 46, N
        138   -4.830E+02                                 F               0         Blade 1 Z force, node 46, N
        139    4.099E+03                                 F               0         Blade 1 X force, node 47, N
        140   -3.149E+01                                 F               0         Blade 1 Y force, node 47, N
        141   -5.917E+02                                 F               0         Blade 1 Z force, node 47, N
        142    2.938E+03                                 F               0         Blade 1 X force, node 48, N
        143   -1.949E+01                                 F               0         Blade 1 Y force, node 48, N
        144   -4.333E+02                                 F               0         Blade 1 Z force, node 48, N
        145    3.612E+03                                 F               0         Blade 1 X force, node 49, N
        146   -2.087E+01                                 F               0         Blade 1 Y force, node 49, N
        147   -5.420E+02                                 F               0         Blade 1 Z force, node 49, N
        148    3.090E+03                                 F               0         Blade 1 X force, node 50, N
        149   -1.526E+01                                 F               0         Blade 1 Y force, node 50, N
        150   -4.714E+02                                 F               0         Blade 1 Z force, node 50, N
        151    4.321E+03                                 F               0         Blade 1 X force, node 51, N
        152   -1.726E+01                                 F               0         Blade 1 Y force, node 51, N
        153   -6.714E+02                                 F               0         Blade 1 Z force, node 51, N
        154    3.800E+03                                 F               0         Blade 1 X force, node 52, N
        155   -1.168E+01                                 F               0         Blade 1 Y force, node 52, N
        156   -6.009E+02                                 F               0         Blade 1 Z force, node 52, N
        157    3.864E+03                                 F               0         Blade 1 X force, node 53, N
        158   -8.642E+00                                 F               0         Blade 1 Y force, node 53, N
        159   -6.206E+02                                 F               0         Blade 1 Z force, node 53, N
        160    3.970E+03                                 F               0         Blade 1 X force, node 54, N
        161   -5.651E+00                                 F               0         Blade 1 Y force, node 54, N
        162   -6.474E+02                                 F               0         Blade 1 Z force, node 54, N
        163    3.947E+03                                 F               0         Blade 1 X force, node 55, N
        164   -2.510E+00                                 F               0         Blade 1 Y force, node 55, N
        165   -6.529E+02                                 F               0         Blade 1 Z force, node 55, N
        166    4.053E+03                                 F               0         Blade 1 X force, node 56, N
        167    4.813E-01                                 F               0         Blade 1 Y force, node 56, N
        168   -6.797E+02                                 F               0         Blade 1 Z force, node 56, N
        169    4.861E+03                                 F               0         Blade 1 X force, node 57, N
        170    4.402E+00                                 F               0         Blade 1 Y force, node 57, N
        171   -8.266E+02                                 F               0         Blade 1 Z force, node 57, N
        172    3.435E+03                                 F               0         Blade 1 X force, node 58, N
        173    5.678E+00                                 F               0         Blade 1 Y force, node 58, N
        174   -5.917E+02                                 F               0         Blade 1 Z force, node 58, N
        175    4.243E+03                                 F               0         Blade 1 X force, node 59, N
        176    9.592E+00                                 F               0         Blade 1 Y force, node 59, N
        177   -7.387E+02                                 F               0         Blade 1 Z force, node 59, N
        178    3.647E+03                                 F               0         Blade 1 X force, node 60, N
        179    1.045E+01                                 F               0         Blade 1 Y force, node 60, N
        180   -6.415E+02                                 F               0         Blade 1 Z force, node 60, N
        181    5.029E+03                                 F               0         Blade 1 X force, node 61, N
        182    1.784E+01                                 F               0         Blade 1 Y force, node 61, N
        183   -8.948E+02                                 F               0         Blade 1 Z force, node 61, N
        184    4.431E+03                                 F               0         Blade 1 X force, node 62, N