
Linearized model: Predictions were generated on 12-Jan-2024 at 08:43:17 using OpenFAST, compiled as a 64-bit application using single precision at commit v3.5.1
 linked with  NWTC Subroutine Library; ElastoDyn; InflowWind; AeroDyn; ServoDyn; HydroDyn; MAP++ (<1.20.10>, <Oct-20-2023>)

Description from the FAST input file: CCT-9 Campign 4 model. Input files to be run with OpenFAST 3.5.0. GitHub branch from Lu Wang (https://github.com/luwang00/openfast/tree/dev) compiled on March 7, 2023.

Simulation information:
   Simulation time:                   505.9250 s
   Rotor Speed:                         0.7075 rad/s
   Azimuth:                             1.3257 rad
   Wind Speed:                          8.0000 m/s
   Number of continuous states:         0
   Number of discrete states:           0
   Number of constraint states:         0
   Number of inputs:                  303
   Number of outputs:                   1
   Jacobians included in this file?    No

Order of inputs:
     Column   Operating Point                     Rotating Frame? Derivative Order Description
   ---------- ---------------                     --------------- ---------------- -----------
          1   -1.080E+01                                 F               0         X-component position of node 1 (hub), m
          2    0.000E+00                                 F               0         Y-component position of node 1 (hub), m
          3    1.497E+02                                 F               0         Z-component position of node 1 (hub), m
          4    8.541E+00                                 F               0         X-component position of node 2 (blade 1, node 1), m
          5   -1.300E+01                                 F               0         Y-component position of node 2 (blade 1, node 1), m
          6    1.509E+02                                 F               0         Z-component position of node 2 (blade 1, node 1), m
          7    8.605E+00                                 F               0         X-component position of node 3 (blade 1, node 2), m
          8   -1.431E+01                                 F               0         Y-component position of node 3 (blade 1, node 2), m
          9    1.512E+02                                 F               0         Z-component position of node 3 (blade 1, node 2), m
         10    9.472E+00                                 F               0         X-component position of node 4 (blade 1, node 3), m
         11   -3.210E+01                                 F               0         Y-component position of node 4 (blade 1, node 3), m
         12    1.546E+02                                 F               0         Z-component position of node 4 (blade 1, node 3), m
         13    9.657E+00                                 F               0         X-component position of node 5 (blade 1, node 4), m
         14   -3.589E+01                                 F               0         Y-component position of node 5 (blade 1, node 4), m
         15    1.554E+02                                 F               0         Z-component position of node 5 (blade 1, node 4), m
         16    9.841E+00                                 F               0         X-component position of node 6 (blade 1, node 5), m
         17   -3.969E+01                                 F               0         Y-component position of node 6 (blade 1, node 5), m
         18    1.561E+02                                 F               0         Z-component position of node 6 (blade 1, node 5), m
         19    1.003E+01                                 F               0         X-component position of node 7 (blade 1, node 6), m
         20   -4.348E+01                                 F               0         Y-component position of node 7 (blade 1, node 6), m
         21    1.568E+02                                 F               0         Z-component position of node 7 (blade 1, node 6), m
         22    1.021E+01                                 F               0         X-component position of node 8 (blade 1, node 7), m
         23   -4.727E+01                                 F               0         Y-component position of node 8 (blade 1, node 7), m
         24    1.576E+02                                 F               0         Z-component position of node 8 (blade 1, node 7), m
         25    1.040E+01                                 F               0         X-component position of node 9 (blade 1, node 8), m
         26   -5.106E+01                                 F               0         Y-component position of node 9 (blade 1, node 8), m
         27    1.583E+02                                 F               0         Z-component position of node 9 (blade 1, node 8), m
         28    1.058E+01                                 F               0         X-component position of node 10 (blade 1, node 9), m
         29   -5.485E+01                                 F               0         Y-component position of node 10 (blade 1, node 9), m
         30    1.591E+02                                 F               0         Z-component position of node 10 (blade 1, node 9), m
         31    1.077E+01                                 F               0         X-component position of node 11 (blade 1, node 10), m
         32   -5.865E+01                                 F               0         Y-component position of node 11 (blade 1, node 10), m
         33    1.598E+02                                 F               0         Z-component position of node 11 (blade 1, node 10), m
         34    1.095E+01                                 F               0         X-component position of node 12 (blade 1, node 11), m
         35   -6.244E+01                                 F               0         Y-component position of node 12 (blade 1, node 11), m
         36    1.605E+02                                 F               0         Z-component position of node 12 (blade 1, node 11), m
         37    1.113E+01                                 F               0         X-component position of node 13 (blade 1, node 12), m
         38   -6.623E+01                                 F               0         Y-component position of node 13 (blade 1, node 12), m
         39    1.613E+02                                 F               0         Z-component position of node 13 (blade 1, node 12), m
         40    1.132E+01                                 F               0         X-component position of node 14 (blade 1, node 13), m
         41   -7.002E+01                                 F               0         Y-component position of node 14 (blade 1, node 13), m
         42    1.620E+02                                 F               0         Z-component position of node 14 (blade 1, node 13), m
         43    1.150E+01                                 F               0         X-component position of node 15 (blade 1, node 14), m
         44   -7.381E+01                                 F               0         Y-component position of node 15 (blade 1, node 14), m
         45    1.628E+02                                 F               0         Z-component position of node 15 (blade 1, node 14), m
         46    1.169E+01                                 F               0         X-component position of node 16 (blade 1, node 15), m
         47   -7.761E+01                                 F               0         Y-component position of node 16 (blade 1, node 15), m
         48    1.635E+02                                 F               0         Z-component position of node 16 (blade 1, node 15), m
         49    1.187E+01                                 F               0         X-component position of node 17 (blade 1, node 16), m
         50   -8.140E+01                                 F               0         Y-component position of node 17 (blade 1, node 16), m
         51    1.642E+02                                 F               0         Z-component position of node 17 (blade 1, node 16), m
         52    1.206E+01                                 F               0         X-component position of node 18 (blade 1, node 17), m
         53   -8.519E+01                                 F               0         Y-component position of node 18 (blade 1, node 17), m
         54    1.650E+02                                 F               0         Z-component position of node 18 (blade 1, node 17), m
         55    1.224E+01                                 F               0         X-component position of node 19 (blade 1, node 18), m
         56   -8.898E+01                                 F               0         Y-component position of node 19 (blade 1, node 18), m
         57    1.657E+02                                 F               0         Z-component position of node 19 (blade 1, node 18), m
         58    1.243E+01                                 F               0         X-component position of node 20 (blade 1, node 19), m
         59   -9.277E+01                                 F               0         Y-component position of node 20 (blade 1, node 19), m
         60    1.665E+02                                 F               0         Z-component position of node 20 (blade 1, node 19), m
         61    1.261E+01                                 F               0         X-component position of node 21 (blade 1, node 20), m
         62   -9.657E+01                                 F               0         Y-component position of node 21 (blade 1, node 20), m
         63    1.672E+02                                 F               0         Z-component position of node 21 (blade 1, node 20), m
         64    1.280E+01                                 F               0         X-component position of node 22 (blade 1, node 21), m
         65   -1.004E+02                                 F               0         Y-component position of node 22 (blade 1, node 21), m
         66    1.679E+02                                 F               0         Z-component position of node 22 (blade 1, node 21), m
         67    1.298E+01                                 F               0         X-component position of node 23 (blade 1, node 22), m
         68   -1.042E+02                                 F               0         Y-component position of node 23 (blade 1, node 22), m
         69    1.687E+02                                 F               0         Z-component position of node 23 (blade 1, node 22), m
         70    1.317E+01                                 F               0         X-component position of node 24 (blade 1, node 23), m
         71   -1.079E+02                                 F               0         Y-component position of node 24 (blade 1, node 23), m
         72    1.694E+02                                 F               0         Z-component position of node 24 (blade 1, node 23), m
         73    1.335E+01                                 F               0         X-component position of node 25 (blade 1, node 24), m
         74   -1.117E+02                                 F               0         Y-component position of node 25 (blade 1, node 24), m
         75    1.701E+02                                 F               0         Z-component position of node 25 (blade 1, node 24), m
         76    1.354E+01                                 F               0         X-component position of node 26 (blade 1, node 25), m
         77   -1.155E+02                                 F               0         Y-component position of node 26 (blade 1, node 25), m
         78    1.709E+02                                 F               0         Z-component position of node 26 (blade 1, node 25), m
         79    1.372E+01                                 F               0         X-component position of node 27 (blade 1, node 26), m
         80   -1.193E+02                                 F               0         Y-component position of node 27 (blade 1, node 26), m
         81    1.716E+02                                 F               0         Z-component position of node 27 (blade 1, node 26), m
         82    1.391E+01                                 F               0         X-component position of node 28 (blade 1, node 27), m
         83   -1.231E+02                                 F               0         Y-component position of node 28 (blade 1, node 27), m
         84    1.724E+02                                 F               0         Z-component position of node 28 (blade 1, node 27), m
         85    1.406E+01                                 F               0         X-component position of node 29 (blade 1, node 28), m
         86   -1.263E+02                                 F               0         Y-component position of node 29 (blade 1, node 28), m
         87    1.730E+02                                 F               0         Z-component position of node 29 (blade 1, node 28), m
         88    7.241E+00                                 F               0         X-component position of node 30 (blade 2, node 1), m
         89   -5.793E+00                                 F               0         Y-component position of node 30 (blade 2, node 1), m
         90    1.447E+02                                 F               0         Z-component position of node 30 (blade 2, node 1), m
         91    6.992E+00                                 F               0         X-component position of node 31 (blade 2, node 2), m
         92   -5.366E+00                                 F               0         Y-component position of node 31 (blade 2, node 2), m
         93    1.435E+02                                 F               0         Z-component position of node 31 (blade 2, node 2), m
         94    3.600E+00                                 F               0         X-component position of node 32 (blade 2, node 3), m
         95    4.407E-01                                 F               0         Y-component position of node 32 (blade 2, node 3), m
         96    1.266E+02                                 F               0         Z-component position of node 32 (blade 2, node 3), m
         97    2.877E+00                                 F               0         X-component position of node 33 (blade 2, node 4), m
         98    1.678E+00                                 F               0         Y-component position of node 33 (blade 2, node 4), m
         99    1.230E+02                                 F               0         Z-component position of node 33 (blade 2, node 4), m
        100    2.154E+00                                 F               0         X-component position of node 34 (blade 2, node 5), m
        101    2.915E+00                                 F               0         Y-component position of node 34 (blade 2, node 5), m
        102    1.194E+02                                 F               0         Z-component position of node 34 (blade 2, node 5), m
        103    1.431E+00                                 F               0         X-component position of node 35 (blade 2, node 6), m
        104    4.152E+00                                 F               0         Y-component position of node 35 (blade 2, node 6), m
        105    1.158E+02                                 F               0         Z-component position of node 35 (blade 2, node 6), m
        106    7.085E-01                                 F               0         X-component position of node 36 (blade 2, node 7), m
        107    5.390E+00                                 F               0         Y-component position of node 36 (blade 2, node 7), m
        108    1.122E+02                                 F               0         Z-component position of node 36 (blade 2, node 7), m
        109   -1.435E-02                                 F               0         X-component position of node 37 (blade 2, node 8), m
        110    6.627E+00                                 F               0         Y-component position of node 37 (blade 2, node 8), m
        111    1.086E+02                                 F               0         Z-component position of node 37 (blade 2, node 8), m
        112   -7.371E-01                                 F               0         X-component position of node 38 (blade 2, node 9), m
        113    7.864E+00                                 F               0         Y-component position of node 38 (blade 2, node 9), m
        114    1.051E+02                                 F               0         Z-component position of node 38 (blade 2, node 9), m
        115   -1.460E+00                                 F               0         X-component position of node 39 (blade 2, node 10), m
        116    9.101E+00                                 F               0         Y-component position of node 39 (blade 2, node 10), m
        117    1.015E+02                                 F               0         Z-component position of node 39 (blade 2, node 10), m
        118   -2.183E+00                                 F               0         X-component position of node 40 (blade 2, node 11), m
        119    1.034E+01                                 F               0         Y-component position of node 40 (blade 2, node 11), m
        120    9.787E+01                                 F               0         Z-component position of node 40 (blade 2, node 11), m
        121   -2.905E+00                                 F               0         X-component position of node 41 (blade 2, node 12), m
        122    1.158E+01                                 F               0         Y-component position of node 41 (blade 2, node 12), m
        123    9.427E+01                                 F               0         Z-component position of node 41 (blade 2, node 12), m
        124   -3.628E+00                                 F               0         X-component position of node 42 (blade 2, node 13), m
        125    1.281E+01                                 F               0         Y-component position of node 42 (blade 2, node 13), m
        126    9.068E+01                                 F               0         Z-component position of node 42 (blade 2, node 13), m
        127   -4.351E+00                                 F               0         X-component position of node 43 (blade 2, node 14), m
        128    1.405E+01                                 F               0         Y-component position of node 43 (blade 2, node 14), m
        129    8.709E+01                                 F               0         Z-component position of node 43 (blade 2, node 14), m
        130   -5.074E+00                                 F               0         X-component position of node 44 (blade 2, node 15), m
        131    1.529E+01                                 F               0         Y-component position of node 44 (blade 2, node 15), m
        132    8.349E+01                                 F               0         Z-component position of node 44 (blade 2, node 15), m
        133   -5.797E+00                                 F               0         X-component position of node 45 (blade 2, node 16), m
        134    1.652E+01                                 F               0         Y-component position of node 45 (blade 2, node 16), m
        135    7.990E+01                                 F               0         Z-component position of node 45 (blade 2, node 16), m
        136   -6.519E+00                                 F               0         X-component position of node 46 (blade 2, node 17), m
        137    1.776E+01                                 F               0         Y-component position of node 46 (blade 2, node 17), m
        138    7.631E+01                                 F               0         Z-component position of node 46 (blade 2, node 17), m
        139   -7.242E+00                                 F               0         X-component position of node 47 (blade 2, node 18), m
        140    1.900E+01                                 F               0         Y-component position of node 47 (blade 2, node 18), m
        141    7.272E+01                                 F               0         Z-component position of node 47 (blade 2, node 18), m
        142   -7.965E+00                                 F               0         X-component position of node 48 (blade 2, node 19), m
        143    2.024E+01                                 F               0         Y-component position of node 48 (blade 2, node 19), m
        144    6.913E+01                                 F               0         Z-component position of node 48 (blade 2, node 19), m
        145   -8.688E+00                                 F               0         X-component position of node 49 (blade 2, node 20), m
        146    2.147E+01                                 F               0         Y-component position of node 49 (blade 2, node 20), m
        147    6.553E+01                                 F               0         Z-component position of node 49 (blade 2, node 20), m
        148   -9.410E+00                                 F               0         X-component position of node 50 (blade 2, node 21), m
        149    2.271E+01                                 F               0         Y-component position of node 50 (blade 2, node 21), m
        150    6.194E+01                                 F               0         Z-component position of node 50 (blade 2, node 21), m
        151   -1.013E+01                                 F               0         X-component position of node 51 (blade 2, node 22), m
        152    2.395E+01                                 F               0         Y-component position of node 51 (blade 2, node 22), m
        153    5.835E+01                                 F               0         Z-component position of node 51 (blade 2, node 22), m
        154   -1.086E+01                                 F               0         X-component position of node 52 (blade 2, node 23), m
        155    2.519E+01                                 F               0         Y-component position of node 52 (blade 2, node 23), m
        156    5.476E+01                                 F               0         Z-component position of node 52 (blade 2, node 23), m
        157   -1.158E+01                                 F               0         X-component position of node 53 (blade 2, node 24), m
        158    2.642E+01                                 F               0         Y-component position of node 53 (blade 2, node 24), m
        159    5.116E+01                                 F               0         Z-component position of node 53 (blade 2, node 24), m
        160   -1.230E+01                                 F               0         X-component position of node 54 (blade 2, node 25), m
        161    2.766E+01                                 F               0         Y-component position of node 54 (blade 2, node 25), m
        162    4.757E+01                                 F               0         Z-component position of node 54 (blade 2, node 25), m
        163   -1.302E+01                                 F               0         X-component position of node 55 (blade 2, node 26), m
        164    2.890E+01                                 F               0         Y-component position of node 55 (blade 2, node 26), m
        165    4.398E+01                                 F               0         Z-component position of node 55 (blade 2, node 26), m
        166   -1.375E+01                                 F               0         X-component position of node 56 (blade 2, node 27), m
        167    3.013E+01                                 F               0         Y-component position of node 56 (blade 2, node 27), m
        168    4.039E+01                                 F               0         Z-component position of node 56 (blade 2, node 27), m
        169   -1.436E+01                                 F               0         X-component position of node 57 (blade 2, node 28), m
        170    3.118E+01                                 F               0         Y-component position of node 57 (blade 2, node 28), m
        171    3.734E+01                                 F               0         Z-component position of node 57 (blade 2, node 28), m
        172    9.047E+00                                 F               0         X-component position of node 58 (blade 3, node 1), m
        173   -3.906E+00                                 F               0         Y-component position of node 58 (blade 3, node 1), m
        174    1.539E+02                                 F               0         Z-component position of node 58 (blade 3, node 1), m
        175    9.233E+00                                 F               0         X-component position of node 59 (blade 3, node 2), m
        176   -3.024E+00                                 F               0         Y-component position of node 59 (blade 3, node 2), m
        177    1.549E+02                                 F               0         Z-component position of node 59 (blade 3, node 2), m
        178    1.176E+01                                 F               0         X-component position of node 60 (blade 3, node 3), m
        179    8.966E+00                                 F               0         Y-component position of node 60 (blade 3, node 3), m
        180    1.683E+02                                 F               0         Z-component position of node 60 (blade 3, node 3), m
        181    1.230E+01                                 F               0         X-component position of node 61 (blade 3, node 4), m
        182    1.152E+01                                 F               0         Y-component position of node 61 (blade 3, node 4), m
        183    1.712E+02                                 F               0         Z-component position of node 61 (blade 3, node 4), m
        184    1.283E+01                                 F               0         X-component position of node 62 (blade 3, node 5), m
        185    1.408E+01                                 F               0         Y-component position of node 62 (blade 3, node 5), m
        186    1.740E+02                                 F               0         Z-component position of node 62 (blade 3, node 5), m
        187    1.337E+01                                 F               0         X-component position of node 63 (blade 3, node 6), m
        188    1.663E+01                                 F               0         Y-component position of node 63 (blade 3, node 6), m
        189    1.769E+02                                 F               0         Z-component position of node 63 (blade 3, node 6), m
        190    1.391E+01                                 F               0         X-component position of node 64 (blade 3, node 7), m
        191    1.918E+01                                 F               0         Y-component position of node 64 (blade 3, node 7), m
        192    1.797E+02                                 F               0         Z-component position of node 64 (blade 3, node 7), m
        193    1.445E+01                                 F               0         X-component position of node 65 (blade 3, node 8), m
        194    2.174E+01                                 F               0         Y-component position of node 65 (blade 3, node 8), m
        195    1.826E+02                                 F               0         Z-component position of node 65 (blade 3, node 8), m
        196    1.499E+01                                 F               0         X-component position of node 66 (blade 3, node 9), m
        197    2.429E+01                                 F               0         Y-component position of node 66 (blade 3, node 9), m
        198    1.854E+02                                 F               0         Z-component position of node 66 (blade 3, node 9), m
        199    1.552E+01                                 F               0         X-component position of node 67 (blade 3, node 10), m
        200    2.685E+01                                 F               0         Y-component position of node 67 (blade 3, node 10), m
        201    1.883E+02                                 F               0         Z-component position of node 67 (blade 3, node 10), m
        202    1.606E+01                                 F               0         X-component position of node 68 (blade 3, node 11), m
        203    2.940E+01                                 F               0         Y-component position of node 68 (blade 3, node 11), m
        204    1.911E+02                                 F               0         Z-component position of node 68 (blade 3, node 11), m
        205    1.660E+01                                 F               0         X-component position of node 69 (blade 3, node 12), m
        206    3.196E+01                                 F               0         Y-component position of node 69 (blade 3, node 12), m
        207    1.940E+02                                 F               0         Z-component position of node 69 (blade 3, node 12), m
        208    1.714E+01                                 F               0         X-component position of node 70 (blade 3, node 13), m
        209    3.451E+01                                 F               0         Y-component position of node 70 (blade 3, node 13), m
        210    1.969E+02                                 F               0         Z-component position of node 70 (blade 3, node 13), m
        211    1.768E+01                                 F               0         X-component position of node 71 (blade 3, node 14), m