
Linearized model: Predictions were generated on 06-Feb-2024 at 10:15:48 using OpenFAST, compiled as a 64-bit application using single precision at commit v3.5.1
 linked with  NWTC Subroutine Library; ElastoDyn; InflowWind; AeroDyn; ServoDyn; HydroDyn; MAP++ (<1.20.10>, <Oct-20-2023>)

Description from the FAST input file: CCT-9 Campign 4 model. Input files to be run with OpenFAST 3.5.0. GitHub branch from Lu Wang (https://github.com/luwang00/openfast/tree/dev) compiled on March 7, 2023.

Simulation information:
   Simulation time:                  1002.5000 s
   Rotor Speed:                         1.0396 rad/s
   Azimuth:                             3.6478 rad
   Wind Speed:                         12.0000 m/s
   Number of continuous states:         0
   Number of discrete states:           0
   Number of constraint states:         0
   Number of inputs:                 1746
   Number of outputs:                   4
   Jacobians included in this file?    No

Order of inputs:
     Column   Operating Point                     Rotating Frame? Derivative Order Description
   ---------- ---------------                     --------------- ---------------- -----------
          1    1.514E+01                                 F               0         Tower X translation displacement, node 1, m
          2   -1.084E+00                                 F               0         Tower Y translation displacement, node 1, m
          3   -5.043E-01                                 F               0         Tower Z translation displacement, node 1, m
          4    1.708E+01                                 F               0         Tower X translation displacement, node 2, m
          5   -1.669E+00                                 F               0         Tower Y translation displacement, node 2, m
          6   -6.703E-01                                 F               0         Tower Z translation displacement, node 2, m
          7    1.904E+01                                 F               0         Tower X translation displacement, node 3, m
          8   -2.259E+00                                 F               0         Tower Y translation displacement, node 3, m
          9   -8.421E-01                                 F               0         Tower Z translation displacement, node 3, m
         10    2.103E+01                                 F               0         Tower X translation displacement, node 4, m
         11   -2.855E+00                                 F               0         Tower Y translation displacement, node 4, m
         12   -1.018E+00                                 F               0         Tower Z translation displacement, node 4, m
         13    2.305E+01                                 F               0         Tower X translation displacement, node 5, m
         14   -3.454E+00                                 F               0         Tower Y translation displacement, node 5, m
         15   -1.198E+00                                 F               0         Tower Z translation displacement, node 5, m
         16    2.508E+01                                 F               0         Tower X translation displacement, node 6, m
         17   -4.056E+00                                 F               0         Tower Y translation displacement, node 6, m
         18   -1.382E+00                                 F               0         Tower Z translation displacement, node 6, m
         19    2.713E+01                                 F               0         Tower X translation displacement, node 7, m
         20   -4.661E+00                                 F               0         Tower Y translation displacement, node 7, m
         21   -1.567E+00                                 F               0         Tower Z translation displacement, node 7, m
         22    2.919E+01                                 F               0         Tower X translation displacement, node 8, m
         23   -5.268E+00                                 F               0         Tower Y translation displacement, node 8, m
         24   -1.755E+00                                 F               0         Tower Z translation displacement, node 8, m
         25    3.125E+01                                 F               0         Tower X translation displacement, node 9, m
         26   -5.877E+00                                 F               0         Tower Y translation displacement, node 9, m
         27   -1.944E+00                                 F               0         Tower Z translation displacement, node 9, m
         28    3.332E+01                                 F               0         Tower X translation displacement, node 10, m
         29   -6.487E+00                                 F               0         Tower Y translation displacement, node 10, m
         30   -2.135E+00                                 F               0         Tower Z translation displacement, node 10, m
         31    3.540E+01                                 F               0         Tower X translation displacement, node 11, m
         32   -7.098E+00                                 F               0         Tower Y translation displacement, node 11, m
         33   -2.325E+00                                 F               0         Tower Z translation displacement, node 11, m
         34    9.879E-01,  1.377E-02, -1.548E-01         F               0         Tower X orientation angle, node 1, rad
         35   -6.288E-03,  9.988E-01,  4.873E-02         F               0         Tower Y orientation angle, node 1, rad
         36    1.553E-01, -4.717E-02,  9.867E-01         F               0         Tower Z orientation angle, node 1, rad
         37    9.874E-01,  1.390E-02, -1.574E-01         F               0         Tower X orientation angle, node 2, rad
         38   -6.215E-03,  9.988E-01,  4.919E-02         F               0         Tower Y orientation angle, node 2, rad
         39    1.579E-01, -4.760E-02,  9.863E-01         F               0         Tower Z orientation angle, node 2, rad
         40    9.871E-01,  1.401E-02, -1.597E-01         F               0         Tower X orientation angle, node 3, rad
         41   -6.148E-03,  9.987E-01,  4.961E-02         F               0         Tower Y orientation angle, node 3, rad
         42    1.602E-01, -4.799E-02,  9.859E-01         F               0         Tower Z orientation angle, node 3, rad
         43    9.867E-01,  1.410E-02, -1.616E-01         F               0         Tower X orientation angle, node 4, rad
         44   -6.088E-03,  9.987E-01,  4.997E-02         F               0         Tower Y orientation angle, node 4, rad
         45    1.621E-01, -4.833E-02,  9.856E-01         F               0         Tower Z orientation angle, node 4, rad
         46    9.865E-01,  1.418E-02, -1.633E-01         F               0         Tower X orientation angle, node 5, rad
         47   -6.037E-03,  9.987E-01,  5.028E-02         F               0         Tower Y orientation angle, node 5, rad
         48    1.638E-01, -4.862E-02,  9.853E-01         F               0         Tower Z orientation angle, node 5, rad
         49    9.863E-01,  1.425E-02, -1.646E-01         F               0         Tower X orientation angle, node 6, rad
         50   -5.994E-03,  9.987E-01,  5.054E-02         F               0         Tower Y orientation angle, node 6, rad
         51    1.651E-01, -4.886E-02,  9.851E-01         F               0         Tower Z orientation angle, node 6, rad
         52    9.861E-01,  1.430E-02, -1.656E-01         F               0         Tower X orientation angle, node 7, rad
         53   -5.959E-03,  9.987E-01,  5.075E-02         F               0         Tower Y orientation angle, node 7, rad
         54    1.661E-01, -4.906E-02,  9.849E-01         F               0         Tower Z orientation angle, node 7, rad
         55    9.860E-01,  1.434E-02, -1.664E-01         F               0         Tower X orientation angle, node 8, rad
         56   -5.931E-03,  9.987E-01,  5.091E-02         F               0         Tower Y orientation angle, node 8, rad
         57    1.669E-01, -4.921E-02,  9.847E-01         F               0         Tower Z orientation angle, node 8, rad
         58    9.859E-01,  1.437E-02, -1.669E-01         F               0         Tower X orientation angle, node 9, rad
         59   -5.911E-03,  9.987E-01,  5.103E-02         F               0         Tower Y orientation angle, node 9, rad
         60    1.675E-01, -4.933E-02,  9.846E-01         F               0         Tower Z orientation angle, node 9, rad
         61    9.858E-01,  1.438E-02, -1.673E-01         F               0         Tower X orientation angle, node 10, rad
         62   -5.898E-03,  9.987E-01,  5.111E-02         F               0         Tower Y orientation angle, node 10, rad
         63    1.678E-01, -4.940E-02,  9.846E-01         F               0         Tower Z orientation angle, node 10, rad
         64    9.858E-01,  1.439E-02, -1.675E-01         F               0         Tower X orientation angle, node 11, rad
         65   -5.891E-03,  9.987E-01,  5.115E-02         F               0         Tower Y orientation angle, node 11, rad
         66    1.680E-01, -4.944E-02,  9.845E-01         F               0         Tower Z orientation angle, node 11, rad
         67   -2.432E-03                                 F               0         Tower X translation velocity, node 1, m/s
         68   -3.416E-02                                 F               0         Tower Y translation velocity, node 1, m/s
         69   -1.859E-03                                 F               0         Tower Z translation velocity, node 1, m/s
         70   -3.296E-03                                 F               0         Tower X translation velocity, node 2, m/s
         71   -5.697E-02                                 F               0         Tower Y translation velocity, node 2, m/s
         72   -2.816E-03                                 F               0         Tower Z translation velocity, node 2, m/s
         73   -4.176E-03                                 F               0         Tower X translation velocity, node 3, m/s
         74   -8.007E-02                                 F               0         Tower Y translation velocity, node 3, m/s
         75   -3.794E-03                                 F               0         Tower Z translation velocity, node 3, m/s
         76   -5.069E-03                                 F               0         Tower X translation velocity, node 4, m/s
         77   -1.034E-01                                 F               0         Tower Y translation velocity, node 4, m/s
         78   -4.788E-03                                 F               0         Tower Z translation velocity, node 4, m/s
         79   -5.974E-03                                 F               0         Tower X translation velocity, node 5, m/s
         80   -1.269E-01                                 F               0         Tower Y translation velocity, node 5, m/s
         81   -5.796E-03                                 F               0         Tower Z translation velocity, node 5, m/s
         82   -6.890E-03                                 F               0         Tower X translation velocity, node 6, m/s
         83   -1.506E-01                                 F               0         Tower Y translation velocity, node 6, m/s
         84   -6.815E-03                                 F               0         Tower Z translation velocity, node 6, m/s
         85   -7.815E-03                                 F               0         Tower X translation velocity, node 7, m/s
         86   -1.744E-01                                 F               0         Tower Y translation velocity, node 7, m/s
         87   -7.843E-03                                 F               0         Tower Z translation velocity, node 7, m/s
         88   -8.749E-03                                 F               0         Tower X translation velocity, node 8, m/s
         89   -1.983E-01                                 F               0         Tower Y translation velocity, node 8, m/s
         90   -8.879E-03                                 F               0         Tower Z translation velocity, node 8, m/s
         91   -9.690E-03                                 F               0         Tower X translation velocity, node 9, m/s
         92   -2.224E-01                                 F               0         Tower Y translation velocity, node 9, m/s
         93   -9.921E-03                                 F               0         Tower Z translation velocity, node 9, m/s
         94   -1.064E-02                                 F               0         Tower X translation velocity, node 10, m/s
         95   -2.464E-01                                 F               0         Tower Y translation velocity, node 10, m/s
         96   -1.097E-02                                 F               0         Tower Z translation velocity, node 10, m/s
         97   -1.159E-02                                 F               0         Tower X translation velocity, node 11, m/s
         98   -2.705E-01                                 F               0         Tower Y translation velocity, node 11, m/s
         99   -1.201E-02                                 F               0         Tower Z translation velocity, node 11, m/s
        100    3.687E+01                                 F               0         Hub X translation displacement, node 1, m
        101   -7.641E+00                                 F               0         Hub Y translation displacement, node 1, m
        102   -6.379E-01                                 F               0         Hub Z translation displacement, node 1, m
        103    9.628E-01,  1.948E-02, -2.695E-01         F               0         Hub X orientation angle, node 1, rad
        104   -1.258E-01, -8.503E-01, -5.110E-01         F               0         Hub Y orientation angle, node 1, rad
        105   -2.391E-01,  5.259E-01, -8.162E-01         F               0         Hub Z orientation angle, node 1, rad
        106    1.003E+00                                 F               0         Hub X rotation velocity, node 1, rad/s
        107    2.020E-02                                 F               0         Hub Y rotation velocity, node 1, rad/s
        108   -2.805E-01                                 F               0         Hub Z rotation velocity, node 1, rad/s
        109    9.661E-01,  4.470E-02, -2.542E-01         F               0         Blade root 1 X orientation angle, node 1, rad
        110   -9.719E-02, -8.494E-01, -5.188E-01         F               0         Blade root 1 Y orientation angle, node 1, rad
        111   -2.391E-01,  5.259E-01, -8.162E-01         F               0         Blade root 1 Z orientation angle, node 1, rad
        112    9.667E-01, -6.651E-03, -2.560E-01         F               0         Blade root 2 X orientation angle, node 1, rad
        113   -1.155E-01,  8.808E-01, -4.592E-01         F               0         Blade root 2 Y orientation angle, node 1, rad
        114    2.285E-01,  4.734E-01,  8.507E-01         F               0         Blade root 2 Z orientation angle, node 1, rad
        115    9.544E-01,  2.037E-02, -2.979E-01         F               0         Blade root 3 X orientation angle, node 1, rad
        116    2.984E-01, -2.971E-02,  9.540E-01         F               0         Blade root 3 Y orientation angle, node 1, rad
        117    1.058E-02, -9.994E-01, -3.443E-02         F               0         Blade root 3 Z orientation angle, node 1, rad
        118    3.497E+01                                 F               0         Blade 1 X translation displacement, node 1, m
        119   -4.728E+00                                 F               0         Blade 1 Y translation displacement, node 1, m
        120   -1.067E+01                                 F               0         Blade 1 Z translation displacement, node 1, m
        121    3.451E+01                                 F               0         Blade 1 X translation displacement, node 2, m
        122   -4.025E+00                                 F               0         Blade 1 Y translation displacement, node 2, m
        123   -1.309E+01                                 F               0         Blade 1 Z translation displacement, node 2, m
        124    2.827E+01                                 F               0         Blade 1 X translation displacement, node 3, m
        125    5.521E+00                                 F               0         Blade 1 Y translation displacement, node 3, m
        126   -4.596E+01                                 F               0         Blade 1 Z translation displacement, node 3, m
        127    2.694E+01                                 F               0         Blade 1 X translation displacement, node 4, m
        128    7.555E+00                                 F               0         Blade 1 Y translation displacement, node 4, m
        129   -5.296E+01                                 F               0         Blade 1 Z translation displacement, node 4, m
        130    2.561E+01                                 F               0         Blade 1 X translation displacement, node 5, m
        131    9.590E+00                                 F               0         Blade 1 Y translation displacement, node 5, m
        132   -5.996E+01                                 F               0         Blade 1 Z translation displacement, node 5, m
        133    2.428E+01                                 F               0         Blade 1 X translation displacement, node 6, m
        134    1.162E+01                                 F               0         Blade 1 Y translation displacement, node 6, m
        135   -6.697E+01                                 F               0         Blade 1 Z translation displacement, node 6, m
        136    2.296E+01                                 F               0         Blade 1 X translation displacement, node 7, m
        137    1.366E+01                                 F               0         Blade 1 Y translation displacement, node 7, m
        138   -7.397E+01                                 F               0         Blade 1 Z translation displacement, node 7, m
        139    2.163E+01                                 F               0         Blade 1 X translation displacement, node 8, m
        140    1.569E+01                                 F               0         Blade 1 Y translation displacement, node 8, m
        141   -8.097E+01                                 F               0         Blade 1 Z translation displacement, node 8, m
        142    2.030E+01                                 F               0         Blade 1 X translation displacement, node 9, m
        143    1.773E+01                                 F               0         Blade 1 Y translation displacement, node 9, m
        144   -8.798E+01                                 F               0         Blade 1 Z translation displacement, node 9, m
        145    1.897E+01                                 F               0         Blade 1 X translation displacement, node 10, m
        146    1.976E+01                                 F               0         Blade 1 Y translation displacement, node 10, m
        147   -9.498E+01                                 F               0         Blade 1 Z translation displacement, node 10, m
        148    1.764E+01                                 F               0         Blade 1 X translation displacement, node 11, m
        149    2.179E+01                                 F               0         Blade 1 Y translation displacement, node 11, m
        150   -1.020E+02                                 F               0         Blade 1 Z translation displacement, node 11, m
        151    1.631E+01                                 F               0         Blade 1 X translation displacement, node 12, m
        152    2.383E+01                                 F               0         Blade 1 Y translation displacement, node 12, m
        153   -1.090E+02                                 F               0         Blade 1 Z translation displacement, node 12, m
        154    1.498E+01                                 F               0         Blade 1 X translation displacement, node 13, m
        155    2.586E+01                                 F               0         Blade 1 Y translation displacement, node 13, m
        156   -1.160E+02                                 F               0         Blade 1 Z translation displacement, node 13, m
        157    1.365E+01                                 F               0         Blade 1 X translation displacement, node 14, m
        158    2.790E+01                                 F               0         Blade 1 Y translation displacement, node 14, m
        159   -1.230E+02                                 F               0         Blade 1 Z translation displacement, node 14, m
        160    1.232E+01                                 F               0         Blade 1 X translation displacement, node 15, m
        161    2.993E+01                                 F               0         Blade 1 Y translation displacement, node 15, m
        162   -1.300E+02                                 F               0         Blade 1 Z translation displacement, node 15, m
        163    1.099E+01                                 F               0         Blade 1 X translation displacement, node 16, m
        164    3.196E+01                                 F               0         Blade 1 Y translation displacement, node 16, m
        165   -1.370E+02                                 F               0         Blade 1 Z translation displacement, node 16, m
        166    9.666E+00                                 F               0         Blade 1 X translation displacement, node 17, m
        167    3.400E+01                                 F               0         Blade 1 Y translation displacement, node 17, m
        168   -1.440E+02                                 F               0         Blade 1 Z translation displacement, node 17, m
        169    8.337E+00                                 F               0         Blade 1 X translation displacement, node 18, m
        170    3.603E+01                                 F               0         Blade 1 Y translation displacement, node 18, m
        171   -1.510E+02                                 F               0         Blade 1 Z translation displacement, node 18, m
        172    7.008E+00                                 F               0         Blade 1 X translation displacement, node 19, m
        173    3.807E+01                                 F               0         Blade 1 Y translation displacement, node 19, m
        174   -1.580E+02                                 F               0         Blade 1 Z translation displacement, node 19, m
        175    5.679E+00                                 F               0         Blade 1 X translation displacement, node 20, m
        176    4.010E+01                                 F               0         Blade 1 Y translation displacement, node 20, m
        177   -1.650E+02                                 F               0         Blade 1 Z translation displacement, node 20, m
        178    4.350E+00                                 F               0         Blade 1 X translation displacement, node 21, m
        179    4.213E+01                                 F               0         Blade 1 Y translation displacement, node 21, m
        180   -1.720E+02                                 F               0         Blade 1 Z translation displacement, node 21, m
        181    3.021E+00                                 F               0         Blade 1 X translation displacement, node 22, m
        182    4.417E+01                                 F               0         Blade 1 Y translation displacement, node 22, m
        183   -1.790E+02                                 F               0         Blade 1 Z translation displacement, node 22, m
        184    1.692E+00                                 F               0         Blade 1 X translation displacement, node 23, m
        185    4.620E+01                                 F               0         Blade 1 Y translation displacement, node 23, m
        186   -1.860E+02                                 F               0         Blade 1 Z translation displacement, node 23, m
        187    3.632E-01                                 F               0         Blade 1 X translation displacement, node 24, m
        188    4.824E+01                                 F               0         Blade 1 Y translation displacement, node 24, m
        189   -1.930E+02                                 F               0         Blade 1 Z translation displacement, node 24, m
        190   -9.657E-01                                 F               0         Blade 1 X translation displacement, node 25, m
        191    5.027E+01                                 F               0         Blade 1 Y translation displacement, node 25, m
        192   -2.000E+02                                 F               0         Blade 1 Z translation displacement, node 25, m
        193   -2.295E+00                                 F               0         Blade 1 X translation displacement, node 26, m
        194    5.231E+01                                 F               0         Blade 1 Y translation displacement, node 26, m
        195   -2.070E+02                                 F               0         Blade 1 Z translation displacement, node 26, m
        196   -3.624E+00                                 F               0         Blade 1 X translation displacement, node 27, m
        197    5.434E+01                                 F               0         Blade 1 Y translation displacement, node 27, m
        198   -2.140E+02                                 F               0         Blade 1 Z translation displacement, node 27, m
        199   -4.750E+00                                 F               0         Blade 1 X translation displacement, node 28, m
        200    5.606E+01                                 F               0         Blade 1 Y translation displacement, node 28, m
        201   -2.200E+02                                 F               0         Blade 1 Z translation displacement, node 28, m
        202    9.041E-01,  4.271E-01,  1.036E-02         F               0         Blade 1 X orientation angle, node 1, rad
        203    3.541E-01, -7.355E-01, -5.776E-01         F               0         Blade 1 Y orientation angle, node 1, rad
        204   -2.391E-01,  5.259E-01, -8.162E-01         F               0         Blade 1 Z orientation angle, node 1, rad
        205    9.041E-01,  4.271E-01,  1.036E-02         F               0         Blade 1 X orientation angle, node 2, rad
        206    3.541E-01, -7.355E-01, -5.776E-01         F               0         Blade 1 Y orientation angle, node 2, rad
        207   -2.391E-01,  5.259E-01, -8.162E-01         F               0         Blade 1 Z orientation angle, node 2, rad
        208    9.623E-01,  2.406E-01, -1.268E-01         F               0         Blade 1 X orientation angle, node 3, rad
        209    1.297E-01, -8.158E-01, -5.636E-01         F               0         Blade 1 Y orientation angle, node 3, rad
        210   -2.391E-01,  5.259E-01, -8.162E-01         F               0         Blade 1 Z orientation angle, node 3, rad
        211    9.669E-01,  2.059E-01, -1.505E-01         F               0         Blade 1 X orientation angle, node 4, rad
        212    8.894E-02, -8.252E-01, -5.578E-01         F               0         Blade 1 Y orientation angle, node 4, rad
        213   -2.391E-01,  5.259E-01, -8.162E-01         F               0         Blade 1 Z orientation angle, node 4, rad
        214    9.693E-01,  1.785E-01, -1.689E-01         F               0         Blade 1 X orientation angle, node 5, rad
        215    5.683E-02, -8.316E-01, -5.525E-01         F               0         Blade 1 Y orientation angle, node 5, rad
        216   -2.391E-01,  5.259E-01, -8.162E-01         F               0         Blade 1 Z orientation angle, node 5, rad
        217    9.705E-01,  1.563E-01, -1.835E-01         F               0         Blade 1 X orientation angle, node 6, rad
        218    3.110E-02, -8.360E-01, -5.478E-01         F               0         Blade 1 Y orientation angle, node 6, rad
        219   -2.391E-01,  5.259E-01, -8.162E-01         F               0         Blade 1 Z orientation angle, node 6, rad
        220    9.709E-01,  1.381E-01, -1.954E-01         F               0         Blade 1 X orientation angle, node 7, rad
        221    9.918E-03, -8.393E-01, -5.436E-01         F               0         Blade 1 Y orientation angle, node 7, rad
        222   -2.391E-01,  5.259E-01, -8.162E-01         F               0         Blade 1 Z orientation angle, node 7, rad
        223    9.710E-01,  1.228E-01, -2.053E-01         F               0         Blade 1 X orientation angle, node 8, rad
        224   -7.707E-03, -8.416E-01, -5.400E-01         F               0         Blade 1 Y orientation angle, node 8, rad
        225   -2.391E-01,  5.259E-01, -8.162E-01         F               0         Blade 1 Z orientation angle, node 8, rad
        226    9.707E-01,  1.099E-01, -2.135E-01         F               0         Blade 1 X orientation angle, node 9, rad
        227   -2.262E-02, -8.434E-01, -5.368E-01         F               0         Blade 1 Y orientation angle, node 9, rad