
Linearized model: Predictions were generated on 13-Feb-2024 at 12:12:09 using OpenFAST, compiled as a 64-bit application using single precision at commit v3.5.1
 linked with  NWTC Subroutine Library; ElastoDyn; InflowWind; AeroDyn; ServoDyn; HydroDyn; MAP++ (<1.20.10>, <Oct-20-2023>)

Description from the FAST input file: CCT-9 Campign 4 model. Input files to be run with OpenFAST 3.5.0. GitHub branch from Lu Wang (https://github.com/luwang00/openfast/tree/dev) compiled on March 7, 2023.

Simulation information:
   Simulation time:                   773.7500 s
   Rotor Speed:                         0.7922 rad/s
   Azimuth:                             2.6244 rad
   Wind Speed:                         24.0000 m/s
   Number of continuous states:         0
   Number of discrete states:           0
   Number of constraint states:         0
   Number of inputs:                 1746
   Number of outputs:                   4
   Jacobians included in this file?    No

Order of inputs:
     Column   Operating Point                                                   Rotating Frame? Derivative Order Description
   ---------- ---------------                                                   --------------- ---------------- -----------
          1     8.55096912384E+000                                                     F               0         Tower X translation displacement, node 1, m
          2    -1.82592439651E+000                                                     F               0         Tower Y translation displacement, node 1, m
          3    -2.14647665620E-001                                                     F               0         Tower Z translation displacement, node 1, m
          4     9.72356700897E+000                                                     F               0         Tower X translation displacement, node 2, m
          5    -2.50227284431E+000                                                     F               0         Tower Y translation displacement, node 2, m
          6    -2.89032608271E-001                                                     F               0         Tower Z translation displacement, node 2, m
          7     1.09150695801E+001                                                     F               0         Tower X translation displacement, node 3, m
          8    -3.18635416031E+000                                                     F               0         Tower Y translation displacement, node 3, m
          9    -3.65661412477E-001                                                     F               0         Tower Z translation displacement, node 3, m
         10     1.21207733154E+001                                                     F               0         Tower X translation displacement, node 4, m
         11    -3.87680029869E+000                                                     F               0         Tower Y translation displacement, node 4, m
         12    -4.44032937288E-001                                                     F               0         Tower Z translation displacement, node 4, m
         13     1.33380718231E+001                                                     F               0         Tower X translation displacement, node 5, m
         14    -4.57300138474E+000                                                     F               0         Tower Y translation displacement, node 5, m
         15    -5.23870646954E-001                                                     F               0         Tower Z translation displacement, node 5, m
         16     1.45645246506E+001                                                     F               0         Tower X translation displacement, node 6, m
         17    -5.27431011200E+000                                                     F               0         Tower Y translation displacement, node 6, m
         18    -6.04921221733E-001                                                     F               0         Tower Z translation displacement, node 6, m
         19     1.57974796295E+001                                                     F               0         Tower X translation displacement, node 7, m
         20    -5.97972202301E+000                                                     F               0         Tower Y translation displacement, node 7, m
         21    -6.86844110489E-001                                                     F               0         Tower Z translation displacement, node 7, m
         22     1.70356960297E+001                                                     F               0         Tower X translation displacement, node 8, m
         23    -6.68891191483E+000                                                     F               0         Tower Y translation displacement, node 8, m
         24    -7.69526541233E-001                                                     F               0         Tower Z translation displacement, node 8, m
         25     1.82775096893E+001                                                     F               0         Tower X translation displacement, node 9, m
         26    -7.40109825134E+000                                                     F               0         Tower Y translation displacement, node 9, m
         27    -8.52736592293E-001                                                     F               0         Tower Z translation displacement, node 9, m
         28     1.95215473175E+001                                                     F               0         Tower X translation displacement, node 10, m
         29    -8.11545372009E+000                                                     F               0         Tower Y translation displacement, node 10, m
         30    -9.36304271221E-001                                                     F               0         Tower Z translation displacement, node 10, m
         31     2.07667064667E+001                                                     F               0         Tower X translation displacement, node 11, m
         32    -8.83116436005E+000                                                     F               0         Tower Y translation displacement, node 11, m
         33    -1.02006185055E+000                                                     F               0         Tower Z translation displacement, node 11, m
         34     9.95473980904E-001,  -6.70228805393E-003,  -9.47980433702E-002         F               0         Tower X orientation angle, node 1, rad
         35     1.18292514235E-002,   9.98491108418E-001,   5.36249130964E-002         F               0         Tower Y orientation angle, node 1, rad
         36     9.42955911160E-002,  -5.45035973191E-002,   9.94051158428E-001         F               0         Tower Z orientation angle, node 1, rad
         37     9.95335400105E-001,  -6.62239408121E-003,  -9.62473601103E-002         F               0         Tower X orientation angle, node 2, rad
         38     1.18833463639E-002,   9.98459875584E-001,   5.41907921433E-002         F               0         Tower Y orientation angle, node 2, rad
         39     9.57402512431E-002,  -5.50817549229E-002,   9.93881165981E-001         F               0         Tower Z orientation angle, node 2, rad
         40     9.95213270187E-001,  -6.55222730711E-003,  -9.75067466497E-002         F               0         Tower X orientation angle, node 3, rad
         41     1.19342813268E-002,   9.98430609703E-001,   5.47163225710E-002         F               0         Tower Y orientation angle, node 3, rad
         42     9.69952121377E-002,  -5.56180849671E-002,   9.93729591370E-001         F               0         Tower Z orientation angle, node 3, rad
         43     9.95110213757E-001,  -6.49310974404E-003,  -9.85569283366E-002         F               0         Tower X orientation angle, node 4, rad
         44     1.19813084602E-002,   9.98403608799E-001,   5.51963038743E-002         F               0         Tower Y orientation angle, node 4, rad
         45     9.80411991477E-002,  -5.61072453856E-002,   9.93599474430E-001         F               0         Tower Z orientation angle, node 4, rad
         46     9.95025992393E-001,  -6.44475826994E-003,  -9.94072034955E-002         F               0         Tower X orientation angle, node 5, rad
         47     1.20240217075E-002,   9.98379111290E-001,   5.56287840009E-002         F               0         Tower Y orientation angle, node 5, rad
         48     9.88875627518E-002,  -5.65473586321E-002,   9.93490636349E-001         F               0         Tower Z orientation angle, node 5, rad
         49     9.94959533215E-001,  -6.40654237941E-003,  -1.00072510540E-001         F               0         Tower X orientation angle, node 6, rad
         50     1.20619479567E-002,   9.98357295990E-001,   5.60107044876E-002         F               0         Tower Y orientation angle, node 6, rad
         51     9.95492860675E-002,  -5.69354556501E-002,   9.93402361870E-001         F               0         Tower Z orientation angle, node 6, rad
         52     9.94910538197E-001,  -6.37825252488E-003,  -1.00559912622E-001         F               0         Tower X orientation angle, node 7, rad
         53     1.20940972120E-002,   9.98338758945E-001,   5.63334710896E-002         F               0         Tower Y orientation angle, node 7, rad
         54     1.00033551455E-001,  -5.72629459202E-002,   9.93334889412E-001         F               0         Tower Z orientation angle, node 7, rad
         55     9.94875550270E-001,  -6.35791756213E-003,  -1.00906722248E-001         F               0         Tower X orientation angle, node 8, rad
         56     1.21204238385E-002,   9.98323500156E-001,   5.65973706543E-002         F               0         Tower Y orientation angle, node 8, rad
         57     1.00377716124E-001,  -5.75303733349E-002,   9.93284761906E-001         F               0         Tower Z orientation angle, node 8, rad
         58     9.94852364063E-001,  -6.34434353560E-003,  -1.01135879755E-001         F               0         Tower X orientation angle, node 9, rad
         59     1.21405208483E-002,   9.98311817646E-001,   5.67987672985E-002         F               0         Tower Y orientation angle, node 9, rad
         60     1.00604794919E-001,  -5.77342323959E-002,   9.93249952793E-001         F               0         Tower Z orientation angle, node 9, rad
         61     9.94838833809E-001,  -6.33633695543E-003,  -1.01269640028E-001         F               0         Tower X orientation angle, node 10, rad
         62     1.21540836990E-002,   9.98303890228E-001,   5.69347850978E-002         F               0         Tower Y orientation angle, node 10, rad
         63     1.00737117231E-001,  -5.78717738390E-002,   9.93228495121E-001         F               0         Tower Z orientation angle, node 10, rad
         64     9.94832277298E-001,  -6.33243098855E-003,  -1.01334214211E-001         F               0         Tower X orientation angle, node 11, rad
         65     1.21616516262E-002,   9.98299479485E-001,   5.70107698441E-002         F               0         Tower Y orientation angle, node 11, rad
         66     1.00800871849E-001,  -5.79485446215E-002,   9.93217587471E-001         F               0         Tower Z orientation angle, node 11, rad
         67     3.37998149917E-003                                                     F               0         Tower X translation velocity, node 1, m/s
         68    -2.87797185592E-003                                                     F               0         Tower Y translation velocity, node 1, m/s
         69    -1.85484753456E-003                                                     F               0         Tower Z translation velocity, node 1, m/s
         70     4.37535066158E-003                                                     F               0         Tower X translation velocity, node 2, m/s
         71    -3.91379790381E-003                                                     F               0         Tower Y translation velocity, node 2, m/s
         72    -2.00679735281E-003                                                     F               0         Tower Z translation velocity, node 2, m/s
         73     4.74550481886E-003                                                     F               0         Tower X translation velocity, node 3, m/s
         74    -4.31994581595E-003                                                     F               0         Tower Y translation velocity, node 3, m/s
         75    -2.06533563323E-003                                                     F               0         Tower Z translation velocity, node 3, m/s
         76     4.58330754191E-003                                                     F               0         Tower X translation velocity, node 4, m/s
         77    -4.21068724245E-003                                                     F               0         Tower Y translation velocity, node 4, m/s
         78    -2.04325141385E-003                                                     F               0         Tower Z translation velocity, node 4, m/s
         79     3.92340961844E-003                                                     F               0         Tower X translation velocity, node 5, m/s
         80    -3.63813014701E-003                                                     F               0         Tower Y translation velocity, node 5, m/s
         81    -1.94532633759E-003                                                     F               0         Tower Z translation velocity, node 5, m/s
         82     2.80635384843E-003                                                     F               0         Tower X translation velocity, node 6, m/s
         83    -2.65663815662E-003                                                     F               0         Tower Y translation velocity, node 6, m/s
         84    -1.77761563100E-003                                                     F               0         Tower Z translation velocity, node 6, m/s
         85     1.31055503152E-003                                                     F               0         Tower X translation velocity, node 7, m/s
         86    -1.34864903521E-003                                                     F               0         Tower Y translation velocity, node 7, m/s
         87    -1.55218713917E-003                                                     F               0         Tower Z translation velocity, node 7, m/s
         88    -5.44837617781E-004                                                     F               0         Tower X translation velocity, node 8, m/s
         89     2.58688785834E-004                                                     F               0         Tower Y translation velocity, node 8, m/s
         90    -1.27215834800E-003                                                     F               0         Tower Z translation velocity, node 8, m/s
         91    -2.69456510432E-003                                                     F               0         Tower X translation velocity, node 9, m/s
         92     2.10219621658E-003                                                     F               0         Tower Y translation velocity, node 9, m/s
         93    -9.47711931076E-004                                                     F               0         Tower Z translation velocity, node 9, m/s
         94    -5.06475288421E-003                                                     F               0         Tower X translation velocity, node 10, m/s
         95     4.11606999114E-003                                                     F               0         Tower Y translation velocity, node 10, m/s
         96    -5.90282899793E-004                                                     F               0         Tower Z translation velocity, node 10, m/s
         97    -7.57760182023E-003                                                     F               0         Tower X translation velocity, node 11, m/s
         98     6.23636413366E-003                                                     F               0         Tower Y translation velocity, node 11, m/s
         99    -2.11766600842E-004                                                     F               0         Tower Z translation velocity, node 11, m/s
        100     2.16138267517E+001                                                     F               0         Hub X translation displacement, node 1, m
        101    -9.21767807007E+000                                                     F               0         Hub Y translation displacement, node 1, m
        102     2.11610998958E-002                                                     F               0         Hub Z translation displacement, node 1, m
        103     9.78845953941E-001,  -2.40468449192E-004,  -2.04598605633E-001         F               0         Hub X orientation angle, node 1, rad
        104     9.04177501798E-002,  -8.96541893482E-001,   4.33632642031E-001         F               0         Hub Y orientation angle, node 1, rad
        105    -1.83535486460E-001,  -4.42958891392E-001,  -8.77554655075E-001         F               0         Hub Z orientation angle, node 1, rad
        106     7.75234639645E-001                                                     F               0         Hub X rotation velocity, node 1, rad/s
        107    -3.98897158448E-004                                                     F               0         Hub Y rotation velocity, node 1, rad/s
        108    -1.62056058645E-001                                                     F               0         Hub Z rotation velocity, node 1, rad/s
        109     9.10338580608E-001,   2.60280728340E-001,  -3.21772664785E-001         F               0         Blade root 1 X orientation angle, node 1, rad
        110     3.70942622423E-001,  -8.57928514481E-001,   3.55471819639E-001         F               0         Blade root 1 Y orientation angle, node 1, rad
        111    -1.83535486460E-001,  -4.42958891392E-001,  -8.77554655075E-001         F               0         Blade root 1 Z orientation angle, node 1, rad
        112     9.95933532715E-001,  -1.90177485347E-002,   8.80611613393E-002         F               0         Blade root 2 X orientation angle, node 1, rad
        113     8.90795812011E-002,   6.17976263165E-002,  -9.94105577469E-001         F               0         Blade root 2 Y orientation angle, node 1, rad
        114     1.34636787698E-002,   9.97907519341E-001,   6.32404237986E-002         F               0         Blade root 2 Z orientation angle, node 1, rad
        115     9.03562486172E-001,  -2.41953238845E-001,  -3.53600740433E-001         F               0         Blade root 3 X orientation angle, node 1, rad
        116     3.93256217241E-001,   7.95921266079E-001,   4.60281282663E-001         F               0         Blade root 3 Y orientation angle, node 1, rad
        117     1.70071810484E-001,  -5.54948568344E-001,   8.14314186573E-001         F               0         Blade root 3 Z orientation angle, node 1, rad
        118     2.00179519653E+001                                                     F               0         Blade 1 X translation displacement, node 1, m
        119    -1.16716699600E+001                                                     F               0         Blade 1 Y translation displacement, node 1, m
        120    -1.03501501083E+001                                                     F               0         Blade 1 Z translation displacement, node 1, m
        121     1.96334133148E+001                                                     F               0         Blade 1 X translation displacement, node 2, m
        122    -1.22629785538E+001                                                     F               0         Blade 1 Y translation displacement, node 2, m
        123    -1.28491945267E+001                                                     F               0         Blade 1 Z translation displacement, node 2, m
        124     1.44043598175E+001                                                     F               0         Blade 1 X translation displacement, node 3, m
        125    -2.03037490845E+001                                                     F               0         Blade 1 Y translation displacement, node 3, m
        126    -4.68318862915E+001                                                     F               0         Blade 1 Z translation displacement, node 3, m
        127     1.32902784348E+001                                                     F               0         Blade 1 X translation displacement, node 4, m
        128    -2.20168819427E+001                                                     F               0         Blade 1 Y translation displacement, node 4, m
        129    -5.40721092224E+001                                                     F               0         Blade 1 Z translation displacement, node 4, m
        130     1.21759853363E+001                                                     F               0         Blade 1 X translation displacement, node 5, m
        131    -2.37303428650E+001                                                     F               0         Blade 1 Y translation displacement, node 5, m
        132    -6.13136901855E+001                                                     F               0         Blade 1 Z translation displacement, node 5, m
        133     1.10619001389E+001                                                     F               0         Blade 1 X translation displacement, node 6, m
        134    -2.54434814453E+001                                                     F               0         Blade 1 Y translation displacement, node 6, m
        135    -6.85539398193E+001                                                     F               0         Blade 1 Z translation displacement, node 6, m
        136     9.94781112671E+000                                                     F               0         Blade 1 X translation displacement, node 7, m
        137    -2.71566276550E+001                                                     F               0         Blade 1 Y translation displacement, node 7, m
        138    -7.57942047119E+001                                                     F               0         Blade 1 Z translation displacement, node 7, m
        139     8.83352279663E+000                                                     F               0         Blade 1 X translation displacement, node 8, m
        140    -2.88700809479E+001                                                     F               0         Blade 1 Y translation displacement, node 8, m
        141    -8.30357742310E+001                                                     F               0         Blade 1 Z translation displacement, node 8, m
        142     7.71943330765E+000                                                     F               0         Blade 1 X translation displacement, node 9, m
        143    -3.05832271576E+001                                                     F               0         Blade 1 Y translation displacement, node 9, m
        144    -9.02760314941E+001                                                     F               0         Blade 1 Z translation displacement, node 9, m
        145     6.60534811020E+000                                                     F               0         Blade 1 X translation displacement, node 10, m
        146    -3.22963676453E+001                                                     F               0         Blade 1 Y translation displacement, node 10, m
        147    -9.75162887573E+001                                                     F               0         Blade 1 Z translation displacement, node 10, m
        148     5.49125814438E+000                                                     F               0         Blade 1 X translation displacement, node 11, m
        149    -3.40095138550E+001                                                     F               0         Blade 1 Y translation displacement, node 11, m
        150    -1.04756546021E+002                                                     F               0         Blade 1 Z translation displacement, node 11, m
        151     4.37697410583E+000                                                     F               0         Blade 1 X translation displacement, node 12, m
        152    -3.57229614258E+001                                                     F               0         Blade 1 Y translation displacement, node 12, m
        153    -1.11998092651E+002                                                     F               0         Blade 1 Z translation displacement, node 12, m
        154     3.26288461685E+000                                                     F               0         Blade 1 X translation displacement, node 13, m
        155    -3.74361076355E+001                                                     F               0         Blade 1 Y translation displacement, node 13, m
        156    -1.19238349915E+002                                                     F               0         Blade 1 Z translation displacement, node 13, m
        157     2.14879941940E+000                                                     F               0         Blade 1 X translation displacement, node 14, m
        158    -3.91492500305E+001                                                     F               0         Blade 1 Y translation displacement, node 14, m
        159    -1.26478607178E+002                                                     F               0         Blade 1 Z translation displacement, node 14, m
        160     1.03450787067E+000                                                     F               0         Blade 1 X translation displacement, node 15, m
        161    -4.08627052307E+001                                                     F               0         Blade 1 Y translation displacement, node 15, m
        162    -1.33720184326E+002                                                     F               0         Blade 1 Z translation displacement, node 15, m
        163    -7.95780867338E-002                                                     F               0         Blade 1 X translation displacement, node 16, m
        164    -4.25758476257E+001                                                     F               0         Blade 1 Y translation displacement, node 16, m
        165    -1.40960433960E+002                                                     F               0         Blade 1 Z translation displacement, node 16, m
        166    -1.19366836548E+000                                                     F               0         Blade 1 X translation displacement, node 17, m
        167    -4.42889976501E+001                                                     F               0         Blade 1 Y translation displacement, node 17, m
        168    -1.48200698853E+002                                                     F               0         Blade 1 Z translation displacement, node 17, m
        169    -2.30775451660E+000                                                     F               0         Blade 1 X translation displacement, node 18, m
        170    -4.60021400452E+001                                                     F               0         Blade 1 Y translation displacement, node 18, m
        171    -1.55440948486E+002                                                     F               0         Blade 1 Z translation displacement, node 18, m
        172    -3.42203927040E+000                                                     F               0         Blade 1 X translation displacement, node 19, m
        173    -4.77155838013E+001                                                     F               0         Blade 1 Y translation displacement, node 19, m
        174    -1.62682495117E+002                                                     F               0         Blade 1 Z translation displacement, node 19, m
        175    -4.53612947464E+000                                                     F               0         Blade 1 X translation displacement, node 20, m
        176    -4.94287300110E+001                                                     F               0         Blade 1 Y translation displacement, node 20, m
        177    -1.69922760010E+002                                                     F               0         Blade 1 Z translation displacement, node 20, m
        178    -5.65021562576E+000                                                     F               0         Blade 1 X translation displacement, node 21, m
        179    -5.11418762207E+001                                                     F               0         Blade 1 Y translation displacement, node 21, m
        180    -1.77163024902E+002                                                     F               0         Blade 1 Z translation displacement, node 21, m
        181    -6.76450490952E+000                                                     F               0         Blade 1 X translation displacement, node 22, m
        182    -5.28553276062E+001                                                     F               0         Blade 1 Y translation displacement, node 22, m
        183    -1.84404586792E+002                                                     F               0         Blade 1 Z translation displacement, node 22, m