
Linearized model: Predictions were generated on 12-Feb-2024 at 15:30:16 using OpenFAST, compiled as a 64-bit application using single precision at commit v3.5.1
 linked with  NWTC Subroutine Library; ElastoDyn; InflowWind; AeroDyn; ServoDyn; HydroDyn; MAP++ (<1.20.10>, <Oct-20-2023>)

Description from the FAST input file: CCT-9 Campign 4 model. Input files to be run with OpenFAST 3.5.0. GitHub branch from Lu Wang (https://github.com/luwang00/openfast/tree/dev) compiled on March 7, 2023.

Simulation information:
   Simulation time:                  1002.0000 s
   Rotor Speed:                         1.0394 rad/s
   Azimuth:                             3.1281 rad
   Wind Speed:                         12.0000 m/s
   Number of continuous states:        22
   Number of discrete states:           0
   Number of constraint states:         0
   Number of inputs:                 3988
   Number of outputs:                  42
   Jacobians included in this file?    No

Order of continuous states:
   Row/Column Operating Point                     Rotating Frame? Derivative Order Description
   ---------- ---------------                     --------------- ---------------- -----------
          1    1.230E+01                                 F               2         ED Platform horizontal surge translation DOF (internal DOF index = DOF_Sg), m
          2   -2.185E-01                                 F               2         ED Platform horizontal sway translation DOF (internal DOF index = DOF_Sw), m
          3   -2.608E-01                                 F               2         ED Platform vertical heave translation DOF (internal DOF index = DOF_Hv), m
          4    4.768E-02                                 F               2         ED Platform roll tilt rotation DOF (internal DOF index = DOF_R), rad
          5    1.571E-01                                 F               2         ED Platform pitch tilt rotation DOF (internal DOF index = DOF_P), rad
          6    1.037E-02                                 F               2         ED Platform yaw rotation DOF (internal DOF index = DOF_Y), rad
          7    1.085E+00                                 F               2         ED 1st tower fore-aft bending mode DOF (internal DOF index = DOF_TFA1), m
          8    1.965E-01                                 F               2         ED 1st tower side-to-side bending mode DOF (internal DOF index = DOF_TSS1), m
          9    1.612E-03                                 F               2         ED 2nd tower fore-aft bending mode DOF (internal DOF index = DOF_TFA2), m
         10    8.214E-05                                 F               2         ED 2nd tower side-to-side bending mode DOF (internal DOF index = DOF_TSS2), m
         11    1.557E+00                                 F               2         ED Variable speed generator DOF (internal DOF index = DOF_GeAz), rad
         12   -1.029E-03                                 F               2         ED First time derivative of Platform horizontal surge translation DOF (internal DOF index = DOF_Sg), m/s
         13   -1.175E-04                                 F               2         ED First time derivative of Platform horizontal sway translation DOF (internal DOF index = DOF_Sw), m/s
         14   -1.169E-03                                 F               2         ED First time derivative of Platform vertical heave translation DOF (internal DOF index = DOF_Hv), m/s
         15    1.878E-03                                 F               2         ED First time derivative of Platform roll tilt rotation DOF (internal DOF index = DOF_R), rad/s
         16   -3.272E-05                                 F               2         ED First time derivative of Platform pitch tilt rotation DOF (internal DOF index = DOF_P), rad/s
         17   -4.439E-04                                 F               2         ED First time derivative of Platform yaw rotation DOF (internal DOF index = DOF_Y), rad/s
         18   -2.825E-03                                 F               2         ED First time derivative of 1st tower fore-aft bending mode DOF (internal DOF index = DOF_TFA1), m/s
         19    1.126E-02                                 F               2         ED First time derivative of 1st tower side-to-side bending mode DOF (internal DOF index = DOF_TSS1), m/s
         20   -5.396E-06                                 F               2         ED First time derivative of 2nd tower fore-aft bending mode DOF (internal DOF index = DOF_TFA2), m/s
         21    5.292E-06                                 F               2         ED First time derivative of 2nd tower side-to-side bending mode DOF (internal DOF index = DOF_TSS2), m/s
         22    1.039E+00                                 F               2         ED First time derivative of Variable speed generator DOF (internal DOF index = DOF_GeAz), rad/s

Order of continuous state derivatives:
   Row/Column Operating Point                     Rotating Frame? Derivative Order Description
   ---------- ---------------                     --------------- ---------------- -----------
          1   -1.029E-03                                 F               2         First time derivative of ED Platform horizontal surge translation DOF (internal DOF index = DOF_Sg), m/s
          2   -1.175E-04                                 F               2         First time derivative of ED Platform horizontal sway translation DOF (internal DOF index = DOF_Sw), m/s
          3   -1.169E-03                                 F               2         First time derivative of ED Platform vertical heave translation DOF (internal DOF index = DOF_Hv), m/s
          4    1.878E-03                                 F               2         First time derivative of ED Platform roll tilt rotation DOF (internal DOF index = DOF_R), rad/s
          5   -3.272E-05                                 F               2         First time derivative of ED Platform pitch tilt rotation DOF (internal DOF index = DOF_P), rad/s
          6   -4.439E-04                                 F               2         First time derivative of ED Platform yaw rotation DOF (internal DOF index = DOF_Y), rad/s
          7   -2.825E-03                                 F               2         First time derivative of ED 1st tower fore-aft bending mode DOF (internal DOF index = DOF_TFA1), m/s
          8    1.126E-02                                 F               2         First time derivative of ED 1st tower side-to-side bending mode DOF (internal DOF index = DOF_TSS1), m/s
          9   -5.396E-06                                 F               2         First time derivative of ED 2nd tower fore-aft bending mode DOF (internal DOF index = DOF_TFA2), m/s
         10    5.292E-06                                 F               2         First time derivative of ED 2nd tower side-to-side bending mode DOF (internal DOF index = DOF_TSS2), m/s
         11    1.039E+00                                 F               2         First time derivative of ED Variable speed generator DOF (internal DOF index = DOF_GeAz), rad/s
         12    1.889E-05                                 F               2         First time derivative of ED First time derivative of Platform horizontal surge translation DOF (internal DOF index = DOF_Sg), m/s/s
         13   -8.517E-04                                 F               2         First time derivative of ED First time derivative of Platform horizontal sway translation DOF (internal DOF index = DOF_Sw), m/s/s
         14    1.458E-03                                 F               2         First time derivative of ED First time derivative of Platform vertical heave translation DOF (internal DOF index = DOF_Hv), m/s/s
         15   -1.281E-04                                 F               2         First time derivative of ED First time derivative of Platform roll tilt rotation DOF (internal DOF index = DOF_R), rad/s/s
         16   -2.347E-05                                 F               2         First time derivative of ED First time derivative of Platform pitch tilt rotation DOF (internal DOF index = DOF_P), rad/s/s
         17    1.134E-04                                 F               2         First time derivative of ED First time derivative of Platform yaw rotation DOF (internal DOF index = DOF_Y), rad/s/s
         18    6.364E-04                                 F               2         First time derivative of ED First time derivative of 1st tower fore-aft bending mode DOF (internal DOF index = DOF_TFA1), m/s/s
         19   -4.184E-03                                 F               2         First time derivative of ED First time derivative of 1st tower side-to-side bending mode DOF (internal DOF index = DOF_TSS1), m/s/s
         20   -8.151E-06                                 F               2         First time derivative of ED First time derivative of 2nd tower fore-aft bending mode DOF (internal DOF index = DOF_TFA2), m/s/s
         21   -5.747E-06                                 F               2         First time derivative of ED First time derivative of 2nd tower side-to-side bending mode DOF (internal DOF index = DOF_TSS2), m/s/s
         22    4.687E-04                                 F               2         First time derivative of ED First time derivative of Variable speed generator DOF (internal DOF index = DOF_GeAz), rad/s/s

Order of inputs:
     Column   Operating Point                     Rotating Frame? Derivative Order Description
   ---------- ---------------                     --------------- ---------------- -----------
          1   -1.080E+01                                 F               0         IfW X-component position of node 1 (hub), m
          2    0.000E+00                                 F               0         IfW Y-component position of node 1 (hub), m
          3    1.497E+02                                 F               0         IfW Z-component position of node 1 (hub), m
          4    2.458E+01                                 F               0         IfW X-component position of node 2 (blade 1, node 1), m
          5   -7.315E+00                                 F               0         IfW Y-component position of node 2 (blade 1, node 1), m
          6    1.438E+02                                 F               0         IfW Z-component position of node 2 (blade 1, node 1), m
          7    2.422E+01                                 F               0         IfW X-component position of node 3 (blade 1, node 2), m
          8   -7.270E+00                                 F               0         IfW Y-component position of node 3 (blade 1, node 2), m
          9    1.425E+02                                 F               0         IfW Z-component position of node 3 (blade 1, node 2), m
         10    1.932E+01                                 F               0         IfW X-component position of node 4 (blade 1, node 3), m
         11   -6.669E+00                                 F               0         IfW Y-component position of node 4 (blade 1, node 3), m
         12    1.250E+02                                 F               0         IfW Z-component position of node 4 (blade 1, node 3), m
         13    1.827E+01                                 F               0         IfW X-component position of node 5 (blade 1, node 4), m
         14   -6.541E+00                                 F               0         IfW Y-component position of node 5 (blade 1, node 4), m
         15    1.213E+02                                 F               0         IfW Z-component position of node 5 (blade 1, node 4), m
         16    1.723E+01                                 F               0         IfW X-component position of node 6 (blade 1, node 5), m
         17   -6.412E+00                                 F               0         IfW Y-component position of node 6 (blade 1, node 5), m
         18    1.176E+02                                 F               0         IfW Z-component position of node 6 (blade 1, node 5), m
         19    1.619E+01                                 F               0         IfW X-component position of node 7 (blade 1, node 6), m
         20   -6.284E+00                                 F               0         IfW Y-component position of node 7 (blade 1, node 6), m
         21    1.139E+02                                 F               0         IfW Z-component position of node 7 (blade 1, node 6), m
         22    1.514E+01                                 F               0         IfW X-component position of node 8 (blade 1, node 7), m
         23   -6.156E+00                                 F               0         IfW Y-component position of node 8 (blade 1, node 7), m
         24    1.101E+02                                 F               0         IfW Z-component position of node 8 (blade 1, node 7), m
         25    1.410E+01                                 F               0         IfW X-component position of node 9 (blade 1, node 8), m
         26   -6.028E+00                                 F               0         IfW Y-component position of node 9 (blade 1, node 8), m
         27    1.064E+02                                 F               0         IfW Z-component position of node 9 (blade 1, node 8), m
         28    1.305E+01                                 F               0         IfW X-component position of node 10 (blade 1, node 9), m
         29   -5.900E+00                                 F               0         IfW Y-component position of node 10 (blade 1, node 9), m
         30    1.027E+02                                 F               0         IfW Z-component position of node 10 (blade 1, node 9), m
         31    1.201E+01                                 F               0         IfW X-component position of node 11 (blade 1, node 10), m
         32   -5.772E+00                                 F               0         IfW Y-component position of node 11 (blade 1, node 10), m
         33    9.897E+01                                 F               0         IfW Z-component position of node 11 (blade 1, node 10), m
         34    1.096E+01                                 F               0         IfW X-component position of node 12 (blade 1, node 11), m
         35   -5.643E+00                                 F               0         IfW Y-component position of node 12 (blade 1, node 11), m
         36    9.525E+01                                 F               0         IfW Z-component position of node 12 (blade 1, node 11), m
         37    9.919E+00                                 F               0         IfW X-component position of node 13 (blade 1, node 12), m
         38   -5.515E+00                                 F               0         IfW Y-component position of node 13 (blade 1, node 12), m
         39    9.153E+01                                 F               0         IfW Z-component position of node 13 (blade 1, node 12), m
         40    8.875E+00                                 F               0         IfW X-component position of node 14 (blade 1, node 13), m
         41   -5.387E+00                                 F               0         IfW Y-component position of node 14 (blade 1, node 13), m
         42    8.781E+01                                 F               0         IfW Z-component position of node 14 (blade 1, node 13), m
         43    7.830E+00                                 F               0         IfW X-component position of node 15 (blade 1, node 14), m
         44   -5.259E+00                                 F               0         IfW Y-component position of node 15 (blade 1, node 14), m
         45    8.409E+01                                 F               0         IfW Z-component position of node 15 (blade 1, node 14), m
         46    6.786E+00                                 F               0         IfW X-component position of node 16 (blade 1, node 15), m
         47   -5.131E+00                                 F               0         IfW Y-component position of node 16 (blade 1, node 15), m
         48    8.036E+01                                 F               0         IfW Z-component position of node 16 (blade 1, node 15), m
         49    5.741E+00                                 F               0         IfW X-component position of node 17 (blade 1, node 16), m
         50   -5.002E+00                                 F               0         IfW Y-component position of node 17 (blade 1, node 16), m
         51    7.664E+01                                 F               0         IfW Z-component position of node 17 (blade 1, node 16), m
         52    4.697E+00                                 F               0         IfW X-component position of node 18 (blade 1, node 17), m
         53   -4.874E+00                                 F               0         IfW Y-component position of node 18 (blade 1, node 17), m
         54    7.292E+01                                 F               0         IfW Z-component position of node 18 (blade 1, node 17), m
         55    3.653E+00                                 F               0         IfW X-component position of node 19 (blade 1, node 18), m
         56   -4.746E+00                                 F               0         IfW Y-component position of node 19 (blade 1, node 18), m
         57    6.920E+01                                 F               0         IfW Z-component position of node 19 (blade 1, node 18), m
         58    2.608E+00                                 F               0         IfW X-component position of node 20 (blade 1, node 19), m
         59   -4.618E+00                                 F               0         IfW Y-component position of node 20 (blade 1, node 19), m
         60    6.548E+01                                 F               0         IfW Z-component position of node 20 (blade 1, node 19), m
         61    1.564E+00                                 F               0         IfW X-component position of node 21 (blade 1, node 20), m
         62   -4.490E+00                                 F               0         IfW Y-component position of node 21 (blade 1, node 20), m
         63    6.176E+01                                 F               0         IfW Z-component position of node 21 (blade 1, node 20), m
         64    5.195E-01                                 F               0         IfW X-component position of node 22 (blade 1, node 21), m
         65   -4.362E+00                                 F               0         IfW Y-component position of node 22 (blade 1, node 21), m
         66    5.803E+01                                 F               0         IfW Z-component position of node 22 (blade 1, node 21), m
         67   -5.251E-01                                 F               0         IfW X-component position of node 23 (blade 1, node 22), m
         68   -4.233E+00                                 F               0         IfW Y-component position of node 23 (blade 1, node 22), m
         69    5.431E+01                                 F               0         IfW Z-component position of node 23 (blade 1, node 22), m
         70   -1.569E+00                                 F               0         IfW X-component position of node 24 (blade 1, node 23), m
         71   -4.105E+00                                 F               0         IfW Y-component position of node 24 (blade 1, node 23), m
         72    5.059E+01                                 F               0         IfW Z-component position of node 24 (blade 1, node 23), m
         73   -2.614E+00                                 F               0         IfW X-component position of node 25 (blade 1, node 24), m
         74   -3.977E+00                                 F               0         IfW Y-component position of node 25 (blade 1, node 24), m
         75    4.687E+01                                 F               0         IfW Z-component position of node 25 (blade 1, node 24), m
         76   -3.658E+00                                 F               0         IfW X-component position of node 26 (blade 1, node 25), m
         77   -3.849E+00                                 F               0         IfW Y-component position of node 26 (blade 1, node 25), m
         78    4.315E+01                                 F               0         IfW Z-component position of node 26 (blade 1, node 25), m
         79   -4.703E+00                                 F               0         IfW X-component position of node 27 (blade 1, node 26), m
         80   -3.721E+00                                 F               0         IfW Y-component position of node 27 (blade 1, node 26), m
         81    3.942E+01                                 F               0         IfW Z-component position of node 27 (blade 1, node 26), m
         82   -5.747E+00                                 F               0         IfW X-component position of node 28 (blade 1, node 27), m
         83   -3.592E+00                                 F               0         IfW Y-component position of node 28 (blade 1, node 27), m
         84    3.570E+01                                 F               0         IfW Z-component position of node 28 (blade 1, node 27), m
         85   -6.632E+00                                 F               0         IfW X-component position of node 29 (blade 1, node 28), m
         86   -3.484E+00                                 F               0         IfW Y-component position of node 29 (blade 1, node 28), m
         87    3.255E+01                                 F               0         IfW Z-component position of node 29 (blade 1, node 28), m
         88    2.678E+01                                 F               0         IfW X-component position of node 30 (blade 2, node 1), m
         89   -2.796E+00                                 F               0         IfW Y-component position of node 30 (blade 2, node 1), m
         90    1.520E+02                                 F               0         IfW Z-component position of node 30 (blade 2, node 1), m
         91    2.695E+01                                 F               0         IfW X-component position of node 31 (blade 2, node 2), m
         92   -1.663E+00                                 F               0         IfW Y-component position of node 31 (blade 2, node 2), m
         93    1.526E+02                                 F               0         IfW Z-component position of node 31 (blade 2, node 2), m
         94    2.924E+01                                 F               0         IfW X-component position of node 32 (blade 2, node 3), m
         95    1.375E+01                                 F               0         IfW Y-component position of node 32 (blade 2, node 3), m
         96    1.620E+02                                 F               0         IfW Z-component position of node 32 (blade 2, node 3), m
         97    2.973E+01                                 F               0         IfW X-component position of node 33 (blade 2, node 4), m
         98    1.703E+01                                 F               0         IfW Y-component position of node 33 (blade 2, node 4), m
         99    1.639E+02                                 F               0         IfW Z-component position of node 33 (blade 2, node 4), m
        100    3.022E+01                                 F               0         IfW X-component position of node 34 (blade 2, node 5), m
        101    2.031E+01                                 F               0         IfW Y-component position of node 34 (blade 2, node 5), m
        102    1.659E+02                                 F               0         IfW Z-component position of node 34 (blade 2, node 5), m
        103    3.071E+01                                 F               0         IfW X-component position of node 35 (blade 2, node 6), m
        104    2.359E+01                                 F               0         IfW Y-component position of node 35 (blade 2, node 6), m
        105    1.679E+02                                 F               0         IfW Z-component position of node 35 (blade 2, node 6), m
        106    3.120E+01                                 F               0         IfW X-component position of node 36 (blade 2, node 7), m
        107    2.688E+01                                 F               0         IfW Y-component position of node 36 (blade 2, node 7), m
        108    1.699E+02                                 F               0         IfW Z-component position of node 36 (blade 2, node 7), m
        109    3.169E+01                                 F               0         IfW X-component position of node 37 (blade 2, node 8), m
        110    3.016E+01                                 F               0         IfW Y-component position of node 37 (blade 2, node 8), m
        111    1.719E+02                                 F               0         IfW Z-component position of node 37 (blade 2, node 8), m
        112    3.218E+01                                 F               0         IfW X-component position of node 38 (blade 2, node 9), m
        113    3.344E+01                                 F               0         IfW Y-component position of node 38 (blade 2, node 9), m
        114    1.739E+02                                 F               0         IfW Z-component position of node 38 (blade 2, node 9), m
        115    3.267E+01                                 F               0         IfW X-component position of node 39 (blade 2, node 10), m
        116    3.673E+01                                 F               0         IfW Y-component position of node 39 (blade 2, node 10), m
        117    1.759E+02                                 F               0         IfW Z-component position of node 39 (blade 2, node 10), m
        118    3.316E+01                                 F               0         IfW X-component position of node 40 (blade 2, node 11), m
        119    4.001E+01                                 F               0         IfW Y-component position of node 40 (blade 2, node 11), m
        120    1.778E+02                                 F               0         IfW Z-component position of node 40 (blade 2, node 11), m
        121    3.365E+01                                 F               0         IfW X-component position of node 41 (blade 2, node 12), m
        122    4.329E+01                                 F               0         IfW Y-component position of node 41 (blade 2, node 12), m
        123    1.798E+02                                 F               0         IfW Z-component position of node 41 (blade 2, node 12), m
        124    3.414E+01                                 F               0         IfW X-component position of node 42 (blade 2, node 13), m
        125    4.657E+01                                 F               0         IfW Y-component position of node 42 (blade 2, node 13), m
        126    1.818E+02                                 F               0         IfW Z-component position of node 42 (blade 2, node 13), m
        127    3.462E+01                                 F               0         IfW X-component position of node 43 (blade 2, node 14), m
        128    4.986E+01                                 F               0         IfW Y-component position of node 43 (blade 2, node 14), m
        129    1.838E+02                                 F               0         IfW Z-component position of node 43 (blade 2, node 14), m
        130    3.511E+01                                 F               0         IfW X-component position of node 44 (blade 2, node 15), m
        131    5.314E+01                                 F               0         IfW Y-component position of node 44 (blade 2, node 15), m
        132    1.858E+02                                 F               0         IfW Z-component position of node 44 (blade 2, node 15), m
        133    3.560E+01                                 F               0         IfW X-component position of node 45 (blade 2, node 16), m
        134    5.642E+01                                 F               0         IfW Y-component position of node 45 (blade 2, node 16), m
        135    1.878E+02                                 F               0         IfW Z-component position of node 45 (blade 2, node 16), m
        136    3.609E+01                                 F               0         IfW X-component position of node 46 (blade 2, node 17), m
        137    5.971E+01                                 F               0         IfW Y-component position of node 46 (blade 2, node 17), m
        138    1.898E+02                                 F               0         IfW Z-component position of node 46 (blade 2, node 17), m
        139    3.658E+01                                 F               0         IfW X-component position of node 47 (blade 2, node 18), m
        140    6.299E+01                                 F               0         IfW Y-component position of node 47 (blade 2, node 18), m
        141    1.917E+02                                 F               0         IfW Z-component position of node 47 (blade 2, node 18), m
        142    3.707E+01                                 F               0         IfW X-component position of node 48 (blade 2, node 19), m
        143    6.627E+01                                 F               0         IfW Y-component position of node 48 (blade 2, node 19), m
        144    1.937E+02                                 F               0         IfW Z-component position of node 48 (blade 2, node 19), m