
Linearized model: Predictions were generated on 13-Feb-2024 at 12:12:09 using OpenFAST, compiled as a 64-bit application using single precision at commit v3.5.1
 linked with  NWTC Subroutine Library; ElastoDyn; InflowWind; AeroDyn; ServoDyn; HydroDyn; MAP++ (<1.20.10>, <Oct-20-2023>)

Description from the FAST input file: CCT-9 Campign 4 model. Input files to be run with OpenFAST 3.5.0. GitHub branch from Lu Wang (https://github.com/luwang00/openfast/tree/dev) compiled on March 7, 2023.

Simulation information:
   Simulation time:                   772.0000 s
   Rotor Speed:                         0.7918 rad/s
   Azimuth:                             1.2390 rad
   Wind Speed:                         24.0000 m/s
   Number of continuous states:         0
   Number of discrete states:           0
   Number of constraint states:         0
   Number of inputs:                  303
   Number of outputs:                   1
   Jacobians included in this file?    No

Order of inputs:
     Column   Operating Point                                                   Rotating Frame? Derivative Order Description
   ---------- ---------------                                                   --------------- ---------------- -----------
          1    -1.08005075455E+001                                                     F               0         X-component position of node 1 (hub), m
          2     0.00000000000E+000                                                     F               0         Y-component position of node 1 (hub), m
          3     1.49740173340E+002                                                     F               0         Z-component position of node 1 (hub), m
          4     1.11044349670E+001                                                     F               0         X-component position of node 2 (blade 1, node 1), m
          5    -1.45524024963E+001                                                     F               0         Y-component position of node 2 (blade 1, node 1), m
          6     1.51225036621E+002                                                     F               0         Z-component position of node 2 (blade 1, node 1), m
          7     1.11777725220E+001                                                     F               0         X-component position of node 3 (blade 1, node 2), m
          8    -1.58376874924E+001                                                     F               0         Y-component position of node 3 (blade 1, node 2), m
          9     1.51578079224E+002                                                     F               0         Z-component position of node 3 (blade 1, node 2), m
         10     1.21750392914E+001                                                     F               0         X-component position of node 4 (blade 1, node 3), m
         11    -3.33153419495E+001                                                     F               0         Y-component position of node 4 (blade 1, node 3), m
         12     1.56378799438E+002                                                     F               0         Z-component position of node 4 (blade 1, node 3), m
         13     1.23875141144E+001                                                     F               0         X-component position of node 5 (blade 1, node 4), m
         14    -3.70390586853E+001                                                     F               0         Y-component position of node 5 (blade 1, node 4), m
         15     1.57401626587E+002                                                     F               0         Z-component position of node 5 (blade 1, node 4), m
         16     1.26000270844E+001                                                     F               0         X-component position of node 6 (blade 1, node 5), m
         17    -4.07634849548E+001                                                     F               0         Y-component position of node 6 (blade 1, node 5), m
         18     1.58424652100E+002                                                     F               0         Z-component position of node 6 (blade 1, node 5), m
         19     1.28125019073E+001                                                     F               0         X-component position of node 7 (blade 1, node 6), m
         20    -4.44872169495E+001                                                     F               0         Y-component position of node 7 (blade 1, node 6), m
         21     1.59447463989E+002                                                     F               0         Z-component position of node 7 (blade 1, node 6), m
         22     1.30249767303E+001                                                     F               0         X-component position of node 8 (blade 1, node 7), m
         23    -4.82109603882E+001                                                     F               0         Y-component position of node 8 (blade 1, node 7), m
         24     1.60470306396E+002                                                     F               0         Z-component position of node 8 (blade 1, node 7), m
         25     1.32374897003E+001                                                     F               0         X-component position of node 9 (blade 1, node 8), m
         26    -5.19353752136E+001                                                     F               0         Y-component position of node 9 (blade 1, node 8), m
         27     1.61493316650E+002                                                     F               0         Z-component position of node 9 (blade 1, node 8), m
         28     1.34499635696E+001                                                     F               0         X-component position of node 10 (blade 1, node 9), m
         29    -5.56591186523E+001                                                     F               0         Y-component position of node 10 (blade 1, node 9), m
         30     1.62516143799E+002                                                     F               0         Z-component position of node 10 (blade 1, node 9), m
         31     1.36624393463E+001                                                     F               0         X-component position of node 11 (blade 1, node 10), m
         32    -5.93828506470E+001                                                     F               0         Y-component position of node 11 (blade 1, node 10), m
         33     1.63538970947E+002                                                     F               0         Z-component position of node 11 (blade 1, node 10), m
         34     1.38749132156E+001                                                     F               0         X-component position of node 12 (blade 1, node 11), m
         35    -6.31065979004E+001                                                     F               0         Y-component position of node 12 (blade 1, node 11), m
         36     1.64561798096E+002                                                     F               0         Z-component position of node 12 (blade 1, node 11), m
         37     1.40874280930E+001                                                     F               0         X-component position of node 13 (blade 1, node 12), m
         38    -6.68309936523E+001                                                     F               0         Y-component position of node 13 (blade 1, node 12), m
         39     1.65584808350E+002                                                     F               0         Z-component position of node 13 (blade 1, node 12), m
         40     1.42999019623E+001                                                     F               0         X-component position of node 14 (blade 1, node 13), m
         41    -7.05547409058E+001                                                     F               0         Y-component position of node 14 (blade 1, node 13), m
         42     1.66607635498E+002                                                     F               0         Z-component position of node 14 (blade 1, node 13), m
         43     1.45123767853E+001                                                     F               0         X-component position of node 15 (blade 1, node 14), m
         44    -7.42784729004E+001                                                     F               0         Y-component position of node 15 (blade 1, node 14), m
         45     1.67630462646E+002                                                     F               0         Z-component position of node 15 (blade 1, node 14), m
         46     1.47248897552E+001                                                     F               0         X-component position of node 16 (blade 1, node 15), m
         47    -7.80028915405E+001                                                     F               0         Y-component position of node 16 (blade 1, node 15), m
         48     1.68653488159E+002                                                     F               0         Z-component position of node 16 (blade 1, node 15), m
         49     1.49373645782E+001                                                     F               0         X-component position of node 17 (blade 1, node 16), m
         50    -8.17266311646E+001                                                     F               0         Y-component position of node 17 (blade 1, node 16), m
         51     1.69676315308E+002                                                     F               0         Z-component position of node 17 (blade 1, node 16), m
         52     1.51498394012E+001                                                     F               0         X-component position of node 18 (blade 1, node 17), m
         53    -8.54503784180E+001                                                     F               0         Y-component position of node 18 (blade 1, node 17), m
         54     1.70699142456E+002                                                     F               0         Z-component position of node 18 (blade 1, node 17), m
         55     1.53623142242E+001                                                     F               0         X-component position of node 19 (blade 1, node 18), m
         56    -8.91741180420E+001                                                     F               0         Y-component position of node 19 (blade 1, node 18), m
         57     1.71721969604E+002                                                     F               0         Z-component position of node 19 (blade 1, node 18), m
         58     1.55748271942E+001                                                     F               0         X-component position of node 20 (blade 1, node 19), m
         59    -9.28985137939E+001                                                     F               0         Y-component position of node 20 (blade 1, node 19), m
         60     1.72744979858E+002                                                     F               0         Z-component position of node 20 (blade 1, node 19), m
         61     1.57873010635E+001                                                     F               0         X-component position of node 21 (blade 1, node 20), m
         62    -9.66222610474E+001                                                     F               0         Y-component position of node 21 (blade 1, node 20), m
         63     1.73767807007E+002                                                     F               0         Z-component position of node 21 (blade 1, node 20), m
         64     1.59997768402E+001                                                     F               0         X-component position of node 22 (blade 1, node 21), m
         65    -1.00346000671E+002                                                     F               0         Y-component position of node 22 (blade 1, node 21), m
         66     1.74790634155E+002                                                     F               0         Z-component position of node 22 (blade 1, node 21), m
         67     1.62122898102E+001                                                     F               0         X-component position of node 23 (blade 1, node 22), m
         68    -1.04070411682E+002                                                     F               0         Y-component position of node 23 (blade 1, node 22), m
         69     1.75813644409E+002                                                     F               0         Z-component position of node 23 (blade 1, node 22), m
         70     1.64247646332E+001                                                     F               0         X-component position of node 24 (blade 1, node 23), m
         71    -1.07794158936E+002                                                     F               0         Y-component position of node 24 (blade 1, node 23), m
         72     1.76836486816E+002                                                     F               0         Z-component position of node 24 (blade 1, node 23), m
         73     1.66372394562E+001                                                     F               0         X-component position of node 25 (blade 1, node 24), m
         74    -1.11517890930E+002                                                     F               0         Y-component position of node 25 (blade 1, node 24), m
         75     1.77859313965E+002                                                     F               0         Z-component position of node 25 (blade 1, node 24), m
         76     1.68497142792E+001                                                     F               0         X-component position of node 26 (blade 1, node 25), m
         77    -1.15241630554E+002                                                     F               0         Y-component position of node 26 (blade 1, node 25), m
         78     1.78882141113E+002                                                     F               0         Z-component position of node 26 (blade 1, node 25), m
         79     1.70622272491E+001                                                     F               0         X-component position of node 27 (blade 1, node 26), m
         80    -1.18966041565E+002                                                     F               0         Y-component position of node 27 (blade 1, node 26), m
         81     1.79905151367E+002                                                     F               0         Z-component position of node 27 (blade 1, node 26), m
         82     1.72747020721E+001                                                     F               0         X-component position of node 28 (blade 1, node 27), m
         83    -1.22689773560E+002                                                     F               0         Y-component position of node 28 (blade 1, node 27), m
         84     1.80927978516E+002                                                     F               0         Z-component position of node 28 (blade 1, node 27), m
         85     1.74548339844E+001                                                     F               0         X-component position of node 29 (blade 1, node 28), m
         86    -1.25846710205E+002                                                     F               0         Y-component position of node 29 (blade 1, node 28), m
         87     1.81795120239E+002                                                     F               0         Z-component position of node 29 (blade 1, node 28), m
         88     9.70393753052E+000                                                     F               0         X-component position of node 30 (blade 2, node 1), m
         89    -7.84724330902E+000                                                     F               0         Y-component position of node 30 (blade 2, node 1), m
         90     1.44505355835E+002                                                     F               0         Z-component position of node 30 (blade 2, node 1), m
         91     9.43981552124E+000                                                     F               0         X-component position of node 31 (blade 2, node 2), m
         92    -7.51687431335E+000                                                     F               0         Y-component position of node 31 (blade 2, node 2), m
         93     1.43239242554E+002                                                     F               0         Z-component position of node 31 (blade 2, node 2), m
         94     5.84819841385E+000                                                     F               0         X-component position of node 32 (blade 2, node 3), m
         95    -3.02434301376E+000                                                     F               0         Y-component position of node 32 (blade 2, node 3), m
         96     1.26022171021E+002                                                     F               0         Z-component position of node 32 (blade 2, node 3), m
         97     5.08297777176E+000                                                     F               0         X-component position of node 33 (blade 2, node 4), m
         98    -2.06717491150E+000                                                     F               0         Y-component position of node 33 (blade 2, node 4), m
         99     1.22353950500E+002                                                     F               0         Z-component position of node 33 (blade 2, node 4), m
        100     4.31762170792E+000                                                     F               0         X-component position of node 34 (blade 2, node 5), m
        101    -1.10984599590E+000                                                     F               0         Y-component position of node 34 (blade 2, node 5), m
        102     1.18685073853E+002                                                     F               0         Z-component position of node 34 (blade 2, node 5), m
        103     3.55240249634E+000                                                     F               0         X-component position of node 35 (blade 2, node 6), m
        104    -1.52677670121E-001                                                     F               0         Y-component position of node 35 (blade 2, node 6), m
        105     1.15016853333E+002                                                     F               0         Z-component position of node 35 (blade 2, node 6), m
        106     2.78718161583E+000                                                     F               0         X-component position of node 36 (blade 2, node 7), m
        107     8.04488897324E-001                                                     F               0         Y-component position of node 36 (blade 2, node 7), m
        108     1.11348632812E+002                                                     F               0         Z-component position of node 36 (blade 2, node 7), m
        109     2.02182602882E+000                                                     F               0         X-component position of node 37 (blade 2, node 8), m
        110     1.76181852818E+000                                                     F               0         Y-component position of node 37 (blade 2, node 8), m
        111     1.07679748535E+002                                                     F               0         Z-component position of node 37 (blade 2, node 8), m
        112     1.25660514832E+000                                                     F               0         X-component position of node 38 (blade 2, node 9), m
        113     2.71898651123E+000                                                     F               0         Y-component position of node 38 (blade 2, node 9), m
        114     1.04011535645E+002                                                     F               0         Z-component position of node 38 (blade 2, node 9), m
        115     4.91387307644E-001                                                     F               0         X-component position of node 39 (blade 2, node 10), m
        116     3.67614746094E+000                                                     F               0         Y-component position of node 39 (blade 2, node 10), m
        117     1.00343315125E+002                                                     F               0         Z-component position of node 39 (blade 2, node 10), m
        118    -2.73833245039E-001                                                     F               0         X-component position of node 40 (blade 2, node 11), m
        119     4.63331556320E+000                                                     F               0         Y-component position of node 40 (blade 2, node 11), m
        120     9.66750946045E+001                                                     F               0         Z-component position of node 40 (blade 2, node 11), m
        121    -1.03918993473E+000                                                     F               0         X-component position of node 41 (blade 2, node 12), m
        122     5.59064292908E+000                                                     F               0         Y-component position of node 41 (blade 2, node 12), m
        123     9.30062103271E+001                                                     F               0         Z-component position of node 41 (blade 2, node 12), m
        124    -1.80441045761E+000                                                     F               0         X-component position of node 42 (blade 2, node 13), m
        125     6.54781198502E+000                                                     F               0         Y-component position of node 42 (blade 2, node 13), m
        126     8.93379898071E+001                                                     F               0         Z-component position of node 42 (blade 2, node 13), m
        127    -2.56962847710E+000                                                     F               0         X-component position of node 43 (blade 2, node 14), m
        128     7.50497341156E+000                                                     F               0         Y-component position of node 43 (blade 2, node 14), m
        129     8.56697692871E+001                                                     F               0         Z-component position of node 43 (blade 2, node 14), m
        130    -3.33498811722E+000                                                     F               0         X-component position of node 44 (blade 2, node 15), m
        131     8.46231555939E+000                                                     F               0         Y-component position of node 44 (blade 2, node 15), m
        132     8.20008850098E+001                                                     F               0         Z-component position of node 44 (blade 2, node 15), m
        133    -4.10020780563E+000                                                     F               0         X-component position of node 45 (blade 2, node 16), m
        134     9.41948127747E+000                                                     F               0         Y-component position of node 45 (blade 2, node 16), m
        135     7.83326721191E+001                                                     F               0         Z-component position of node 45 (blade 2, node 16), m
        136    -4.86542749405E+000                                                     F               0         X-component position of node 46 (blade 2, node 17), m
        137     1.03766422272E+001                                                     F               0         Y-component position of node 46 (blade 2, node 17), m
        138     7.46644515991E+001                                                     F               0         Z-component position of node 46 (blade 2, node 17), m
        139    -5.63064670563E+000                                                     F               0         X-component position of node 47 (blade 2, node 18), m
        140     1.13338069916E+001                                                     F               0         Y-component position of node 47 (blade 2, node 18), m
        141     7.09962310791E+001                                                     F               0         Z-component position of node 47 (blade 2, node 18), m
        142    -6.39600229263E+000                                                     F               0         X-component position of node 48 (blade 2, node 19), m
        143     1.22911376953E+001                                                     F               0         Y-component position of node 48 (blade 2, node 19), m
        144     6.73273544312E+001                                                     F               0         Z-component position of node 48 (blade 2, node 19), m
        145    -7.16122293472E+000                                                     F               0         X-component position of node 49 (blade 2, node 20), m
        146     1.32483053207E+001                                                     F               0         Y-component position of node 49 (blade 2, node 20), m
        147     6.36591300964E+001                                                     F               0         Z-component position of node 49 (blade 2, node 20), m
        148    -7.92644262314E+000                                                     F               0         X-component position of node 50 (blade 2, node 21), m
        149     1.42054700851E+001                                                     F               0         Y-component position of node 50 (blade 2, node 21), m
        150     5.99909057617E+001                                                     F               0         Z-component position of node 50 (blade 2, node 21), m
        151    -8.69180107117E+000                                                     F               0         X-component position of node 51 (blade 2, node 22), m
        152     1.51628046036E+001                                                     F               0         Y-component position of node 51 (blade 2, node 22), m
        153     5.63220252991E+001                                                     F               0         Z-component position of node 51 (blade 2, node 22), m
        154    -9.45702075958E+000                                                     F               0         X-component position of node 52 (blade 2, node 23), m
        155     1.61199741364E+001                                                     F               0         Y-component position of node 52 (blade 2, node 23), m
        156     5.26538085938E+001                                                     F               0         Z-component position of node 52 (blade 2, node 23), m
        157    -1.02222404480E+001                                                     F               0         X-component position of node 53 (blade 2, node 24), m
        158     1.70771350861E+001                                                     F               0         Y-component position of node 53 (blade 2, node 24), m
        159     4.89855880737E+001                                                     F               0         Z-component position of node 53 (blade 2, node 24), m
        160    -1.09874591827E+001                                                     F               0         X-component position of node 54 (blade 2, node 25), m
        161     1.80342998505E+001                                                     F               0         Y-component position of node 54 (blade 2, node 25), m
        162     4.53173713684E+001                                                     F               0         Z-component position of node 54 (blade 2, node 25), m
        163    -1.17528209686E+001                                                     F               0         X-component position of node 55 (blade 2, node 26), m
        164     1.89916419983E+001                                                     F               0         Y-component position of node 55 (blade 2, node 26), m
        165     4.16484794617E+001                                                     F               0         Z-component position of node 55 (blade 2, node 26), m
        166    -1.25180397034E+001                                                     F               0         X-component position of node 56 (blade 2, node 27), m
        167     1.99487991333E+001                                                     F               0         Y-component position of node 56 (blade 2, node 27), m
        168     3.79802589417E+001                                                     F               0         Z-component position of node 56 (blade 2, node 27), m
        169    -1.31667776108E+001                                                     F               0         X-component position of node 57 (blade 2, node 28), m
        170     2.07602634430E+001                                                     F               0         Y-component position of node 57 (blade 2, node 28), m
        171     3.48704109192E+001                                                     F               0         Z-component position of node 57 (blade 2, node 28), m
        172     1.15918550491E+001                                                     F               0         X-component position of node 58 (blade 3, node 1), m