
Linearized model: Predictions were generated on 13-Feb-2024 at 12:12:09 using OpenFAST, compiled as a 64-bit application using single precision at commit v3.5.1
 linked with  NWTC Subroutine Library; ElastoDyn; InflowWind; AeroDyn; ServoDyn; HydroDyn; MAP++ (<1.20.10>, <Oct-20-2023>)

Description from the FAST input file: CCT-9 Campign 4 model. Input files to be run with OpenFAST 3.5.0. GitHub branch from Lu Wang (https://github.com/luwang00/openfast/tree/dev) compiled on March 7, 2023.

Simulation information:
   Simulation time:                   775.0750 s
   Rotor Speed:                         0.7917 rad/s
   Azimuth:                             3.6740 rad
   Wind Speed:                         24.0000 m/s
   Number of continuous states:         0
   Number of discrete states:           0
   Number of constraint states:         0
   Number of inputs:                   37
   Number of outputs:                   7
   Jacobians included in this file?    No

Order of inputs:
     Column   Operating Point                                                   Rotating Frame? Derivative Order Description
   ---------- ---------------                                                   --------------- ---------------- -----------
          1     6.82504081726E+000                                                     F               0         WAMIT X translation displacement, node 1, m
          2    -8.25026750565E-001                                                     F               0         WAMIT Y translation displacement, node 1, m
          3    -1.08919396996E-001                                                     F               0         WAMIT Z translation displacement, node 1, m
          4     9.95456874371E-001,  -6.67266407982E-003,  -9.49792861938E-002         F               0         WAMIT X orientation angle, node 1, rad
          5     1.18086924776E-002,   9.98491764069E-001,   5.36163672805E-002         F               0         WAMIT Y orientation angle, node 1, rad
          6     9.44782719016E-002,  -5.44943623245E-002,   9.94034290314E-001         F               0         WAMIT Z orientation angle, node 1, rad
          7    -1.26558938064E-003                                                     F               0         WAMIT X translation velocity, node 1, m/s
          8     2.87582236342E-003                                                     F               0         WAMIT Y translation velocity, node 1, m/s
          9    -3.14285256900E-003                                                     F               0         WAMIT Z translation velocity, node 1, m/s
         10    -1.15330345579E-004                                                     F               0         WAMIT X rotation velocity, node 1, rad/s
         11    -1.11816167191E-004                                                     F               0         WAMIT Y rotation velocity, node 1, rad/s
         12     6.01239844400E-006                                                     F               0         WAMIT Z rotation velocity, node 1, rad/s
         13    -8.76015238464E-003                                                     F               0         WAMIT X translation acceleration, node 1, m/s^2
         14    -1.83592201211E-004                                                     F               0         WAMIT Y translation acceleration, node 1, m/s^2
         15    -5.91353687923E-004                                                     F               0         WAMIT Z translation acceleration, node 1, m/s^2
         16     1.54509725689E-005                                                     F               0         WAMIT X rotation acceleration, node 1, rad/s^2
         17    -5.46072318684E-004                                                     F               0         WAMIT Y rotation acceleration, node 1, rad/s^2
         18    -3.84183840652E-005                                                     F               0         WAMIT Z rotation acceleration, node 1, rad/s^2
         19     6.82504081726E+000                                                     F               0         Platform-RefPt X translation displacement, node 1, m
         20    -8.25026750565E-001                                                     F               0         Platform-RefPt Y translation displacement, node 1, m
         21    -1.08919396996E-001                                                     F               0         Platform-RefPt Z translation displacement, node 1, m
         22     9.95456874371E-001,  -6.67266407982E-003,  -9.49792861938E-002         F               0         Platform-RefPt X orientation angle, node 1, rad
         23     1.18086924776E-002,   9.98491764069E-001,   5.36163672805E-002         F               0         Platform-RefPt Y orientation angle, node 1, rad
         24     9.44782719016E-002,  -5.44943623245E-002,   9.94034290314E-001         F               0         Platform-RefPt Z orientation angle, node 1, rad
         25    -1.26558938064E-003                                                     F               0         Platform-RefPt X translation velocity, node 1, m/s
         26     2.87582236342E-003                                                     F               0         Platform-RefPt Y translation velocity, node 1, m/s
         27    -3.14285256900E-003                                                     F               0         Platform-RefPt Z translation velocity, node 1, m/s
         28    -1.15330345579E-004                                                     F               0         Platform-RefPt X rotation velocity, node 1, rad/s
         29    -1.11816167191E-004                                                     F               0         Platform-RefPt Y rotation velocity, node 1, rad/s
         30     6.01239844400E-006                                                     F               0         Platform-RefPt Z rotation velocity, node 1, rad/s
         31    -8.76015238464E-003                                                     F               0         Platform-RefPt X translation acceleration, node 1, m/s^2
         32    -1.83592201211E-004                                                     F               0         Platform-RefPt Y translation acceleration, node 1, m/s^2
         33    -5.91353687923E-004                                                     F               0         Platform-RefPt Z translation acceleration, node 1, m/s^2
         34     1.54509725689E-005                                                     F               0         Platform-RefPt X rotation acceleration, node 1, rad/s^2
         35    -5.46072318684E-004                                                     F               0         Platform-RefPt Y rotation acceleration, node 1, rad/s^2
         36    -3.84183840652E-005                                                     F               0         Platform-RefPt Z rotation acceleration, node 1, rad/s^2
         37     0.00000000000E+000                                                     F               0         Extended input: wave elevation at platform ref point, m

Order of outputs:
        Row   Operating Point                                                   Rotating Frame? Derivative Order Description
   ---------- ---------------                                                   --------------- ---------------- -----------
          1     0.00000000000E+000                                                     F               0         Wave1Elev, (m)
          2    -1.80995742188E+004                                                     F               0         HydroFxi, (N)
          3    -2.64521575928E+002                                                     F               0         HydroFyi, (N)
          4     2.03828192000E+008                                                     F               0         HydroFzi, (N)
          5    -1.16188816000E+008                                                     F               0         HydroMxi, (N-m)
          6    -1.98017248000E+008                                                     F               0         HydroMyi, (N-m)
          7     7.52665750000E+005                                                     F               0         HydroMzi, (N-m)


Linearized state matrices:

D: 7 x 37
     0.00000000000E+000   0.00000000000E+000   0.00000000000E+000   0.00000000000E+000   0.00000000000E+000   0.00000000000E+000   0.00000000000E+000   0.00000000000E+000   0.00000000000E+000   0.00000000000E+000   0.00000000000E+000   0.00000000000E+000   0.00000000000E+000   0.00000000000E+000   0.00000000000E+000   0.00000000000E+000   0.00000000000E+000   0.00000000000E+000   0.00000000000E+000   0.00000000000E+000   0.00000000000E+000   0.00000000000E+000   0.00000000000E+000   0.00000000000E+000   0.00000000000E+000   0.00000000000E+000   0.00000000000E+000   0.00000000000E+000   0.00000000000E+000   0.00000000000E+000   0.00000000000E+000   0.00000000000E+000   0.00000000000E+000   0.00000000000E+000   0.00000000000E+000   0.00000000000E+000   0.00000000000E+000
    -6.86000294576E+003   0.00000000000E+000   0.00000000000E+000   0.00000000000E+000   0.00000000000E+000   0.00000000000E+000  -2.82186141481E+005   0.00000000000E+000   0.00000000000E+000   0.00000000000E+000   0.00000000000E+000   0.00000000000E+000  -9.38083896931E+006   0.00000000000E+000   1.99831830976E+001   0.00000000000E+000   9.82680351759E+007   0.00000000000E+000   0.00000000000E+000   0.00000000000E+000   0.00000000000E+000   0.00000000000E+000   0.00000000000E+000   0.00000000000E+000   0.00000000000E+000   0.00000000000E+000   0.00000000000E+000   0.00000000000E+000   0.00000000000E+000   0.00000000000E+000   0.00000000000E+000   0.00000000000E+000   0.00000000000E+000   0.00000000000E+000   0.00000000000E+000   0.00000000000E+000   0.00000000000E+000
     0.00000000000E+000   0.00000000000E+000   0.00000000000E+000   0.00000000000E+000   0.00000000000E+000   0.00000000000E+000   0.00000000000E+000  -2.82240751524E+005   0.00000000000E+000   0.00000000000E+000   0.00000000000E+000   0.00000000000E+000   0.00000000000E+000  -9.38088807999E+006   0.00000000000E+000  -9.82662446828E+007   0.00000000000E+000   1.78567898772E+003   0.00000000000E+000   0.00000000000E+000   0.00000000000E+000   0.00000000000E+000   0.00000000000E+000   0.00000000000E+000   0.00000000000E+000   0.00000000000E+000   0.00000000000E+000   0.00000000000E+000   0.00000000000E+000   0.00000000000E+000   0.00000000000E+000   0.00000000000E+000   0.00000000000E+000   0.00000000000E+000   0.00000000000E+000   0.00000000000E+000   0.00000000000E+000
     0.00000000000E+000   0.00000000000E+000  -4.39468474504E+006   0.00000000000E+000   3.66692991724E+003   0.00000000000E+000   0.00000000000E+000   0.00000000000E+000  -8.06986542269E+005   0.00000000000E+000   0.00000000000E+000   0.00000000000E+000   6.54808943743E+001   0.00000000000E+000  -2.41346861249E+007   0.00000000000E+000   1.74179171069E+004   0.00000000000E+000   0.00000000000E+000   0.00000000000E+000   0.00000000000E+000   0.00000000000E+000   0.00000000000E+000   0.00000000000E+000   0.00000000000E+000   0.00000000000E+000   0.00000000000E+000   0.00000000000E+000   0.00000000000E+000   0.00000000000E+000   0.00000000000E+000   0.00000000000E+000   0.00000000000E+000   0.00000000000E+000   0.00000000000E+000   0.00000000000E+000   0.00000000000E+000
     0.00000000000E+000   2.03828174978E+008   2.94664024684E+002  -2.13421463291E+009   0.00000000000E+000   8.88084589332E+004   0.00000000000E+000   0.00000000000E+000   0.00000000000E+000  -2.78330156449E+009   0.00000000000E+000   0.00000000000E+000   0.00000000000E+000  -9.82010097437E+007   0.00000000000E+000  -1.13246530020E+010   1.14591559914E+002   5.30558922401E+004   0.00000000000E+000  -2.03828174978E+008  -2.94664024684E+002   0.00000000000E+000   0.00000000000E+000   0.00000000000E+000   0.00000000000E+000   0.00000000000E+000   0.00000000000E+000   0.00000000000E+000   0.00000000000E+000   0.00000000000E+000   0.00000000000E+000   0.00000000000E+000   0.00000000000E+000   0.00000000000E+000   0.00000000000E+000   0.00000000000E+000   0.00000000000E+000
    -2.03828142238E+008   0.00000000000E+000  -1.42093540792E+004   0.00000000000E+000  -2.13398040776E+009   0.00000000000E+000   0.00000000000E+000   0.00000000000E+000   0.00000000000E+000   0.00000000000E+000  -2.78329973103E+009   0.00000000000E+000   9.82036617200E+007   0.00000000000E+000   1.93168638404E+004   0.00000000000E+000  -1.13240534590E+010   0.00000000000E+000   2.03828142238E+008   0.00000000000E+000   1.80727268473E+004   0.00000000000E+000   0.00000000000E+000   0.00000000000E+000   0.00000000000E+000   0.00000000000E+000   0.00000000000E+000   0.00000000000E+000   0.00000000000E+000   0.00000000000E+000   0.00000000000E+000   0.00000000000E+000   0.00000000000E+000   0.00000000000E+000   0.00000000000E+000   0.00000000000E+000   0.00000000000E+000
    -2.64481424934E+002   1.80998400301E+004   0.00000000000E+000   0.00000000000E+000   0.00000000000E+000   0.00000000000E+000   0.00000000000E+000   0.00000000000E+000   0.00000000000E+000   0.00000000000E+000   0.00000000000E+000  -2.51327411660E+009   0.00000000000E+000   1.55389231767E+003   0.00000000000E+000   4.40407593625E+004   0.00000000000E+000  -1.95913504720E+010   2.64481424934E+002  -1.80998400301E+004   0.00000000000E+000   0.00000000000E+000   0.00000000000E+000   0.00000000000E+000   0.00000000000E+000   0.00000000000E+000   0.00000000000E+000   0.00000000000E+000   0.00000000000E+000   0.00000000000E+000   0.00000000000E+000   0.00000000000E+000   0.00000000000E+000   0.00000000000E+000   0.00000000000E+000   0.00000000000E+000   0.00000000000E+000
