
Linearized model: Predictions were generated on 13-Feb-2024 at 12:12:09 using OpenFAST, compiled as a 64-bit application using single precision at commit v3.5.1
 linked with  NWTC Subroutine Library; ElastoDyn; InflowWind; AeroDyn; ServoDyn; HydroDyn; MAP++ (<1.20.10>, <Oct-20-2023>)

Description from the FAST input file: CCT-9 Campign 4 model. Input files to be run with OpenFAST 3.5.0. GitHub branch from Lu Wang (https://github.com/luwang00/openfast/tree/dev) compiled on March 7, 2023.

Simulation information:
   Simulation time:                   776.1750 s
   Rotor Speed:                         0.7921 rad/s
   Azimuth:                             4.5449 rad
   Wind Speed:                         24.0000 m/s
   Number of continuous states:         0
   Number of discrete states:           0
   Number of constraint states:         0
   Number of inputs:                   37
   Number of outputs:                   7
   Jacobians included in this file?    No

Order of inputs:
     Column   Operating Point                                                   Rotating Frame? Derivative Order Description
   ---------- ---------------                                                   --------------- ---------------- -----------
          1     6.82249403000E+000                                                     F               0         WAMIT X translation displacement, node 1, m
          2    -8.23526024818E-001                                                     F               0         WAMIT Y translation displacement, node 1, m
          3    -1.12935863435E-001                                                     F               0         WAMIT Z translation displacement, node 1, m
          4     9.95476484299E-001,  -6.68024364859E-003,  -9.47730988264E-002         F               0         WAMIT X orientation angle, node 1, rad
          5     1.18029648438E-002,   9.98492956161E-001,   5.35953454673E-002         F               0         WAMIT Y orientation angle, node 1, rad
          6     9.42722409964E-002,  -5.44715113938E-002,   9.94055151939E-001         F               0         WAMIT Z orientation angle, node 1, rad
          7     4.31788736023E-004                                                     F               0         WAMIT X translation velocity, node 1, m/s
          8    -3.56199627277E-004                                                     F               0         WAMIT Y translation velocity, node 1, m/s
          9    -4.34024818242E-003                                                     F               0         WAMIT Z translation velocity, node 1, m/s
         10     8.79978251760E-005                                                     F               0         WAMIT X rotation velocity, node 1, rad/s
         11    -4.14968526457E-005                                                     F               0         WAMIT Y rotation velocity, node 1, rad/s
         12     1.03359416244E-005                                                     F               0         WAMIT Z rotation velocity, node 1, rad/s
         13     1.08693055809E-002                                                     F               0         WAMIT X translation acceleration, node 1, m/s^2
         14    -1.42146809958E-003                                                     F               0         WAMIT Y translation acceleration, node 1, m/s^2
         15    -1.60785461776E-003                                                     F               0         WAMIT Z translation acceleration, node 1, m/s^2
         16     9.95700393105E-005                                                     F               0         WAMIT X rotation acceleration, node 1, rad/s^2
         17     6.06065324973E-004                                                     F               0         WAMIT Y rotation acceleration, node 1, rad/s^2
         18     4.70875929750E-005                                                     F               0         WAMIT Z rotation acceleration, node 1, rad/s^2
         19     6.82249403000E+000                                                     F               0         Platform-RefPt X translation displacement, node 1, m
         20    -8.23526024818E-001                                                     F               0         Platform-RefPt Y translation displacement, node 1, m
         21    -1.12935863435E-001                                                     F               0         Platform-RefPt Z translation displacement, node 1, m
         22     9.95476484299E-001,  -6.68024364859E-003,  -9.47730988264E-002         F               0         Platform-RefPt X orientation angle, node 1, rad
         23     1.18029648438E-002,   9.98492956161E-001,   5.35953454673E-002         F               0         Platform-RefPt Y orientation angle, node 1, rad
         24     9.42722409964E-002,  -5.44715113938E-002,   9.94055151939E-001         F               0         Platform-RefPt Z orientation angle, node 1, rad
         25     4.31788736023E-004                                                     F               0         Platform-RefPt X translation velocity, node 1, m/s
         26    -3.56199627277E-004                                                     F               0         Platform-RefPt Y translation velocity, node 1, m/s
         27    -4.34024818242E-003                                                     F               0         Platform-RefPt Z translation velocity, node 1, m/s
         28     8.79978251760E-005                                                     F               0         Platform-RefPt X rotation velocity, node 1, rad/s
         29    -4.14968526457E-005                                                     F               0         Platform-RefPt Y rotation velocity, node 1, rad/s
         30     1.03359416244E-005                                                     F               0         Platform-RefPt Z rotation velocity, node 1, rad/s
         31     1.08693055809E-002                                                     F               0         Platform-RefPt X translation acceleration, node 1, m/s^2
         32    -1.42146809958E-003                                                     F               0         Platform-RefPt Y translation acceleration, node 1, m/s^2
         33    -1.60785461776E-003                                                     F               0         Platform-RefPt Z translation acceleration, node 1, m/s^2
         34     9.95700393105E-005                                                     F               0         Platform-RefPt X rotation acceleration, node 1, rad/s^2
         35     6.06065324973E-004                                                     F               0         Platform-RefPt Y rotation acceleration, node 1, rad/s^2
         36     4.70875929750E-005                                                     F               0         Platform-RefPt Z rotation acceleration, node 1, rad/s^2
         37     0.00000000000E+000                                                     F               0         Extended input: wave elevation at platform ref point, m

Order of outputs:
        Row   Operating Point                                                   Rotating Frame? Derivative Order Description
   ---------- ---------------                                                   --------------- ---------------- -----------
          1     0.00000000000E+000                                                     F               0         Wave1Elev, (m)
          2    -8.92779687500E+004                                                     F               0         HydroFxi, (N)
          3     3.60746264648E+003                                                     F               0         HydroFyi, (N)
          4     2.03870464000E+008                                                     F               0         HydroFzi, (N)
          5    -1.17026744000E+008                                                     F               0         HydroMxi, (N-m)
          6    -2.08709504000E+008                                                     F               0         HydroMyi, (N-m)
          7    -9.22514937500E+005                                                     F               0         HydroMzi, (N-m)


Linearized state matrices:

D: 7 x 37
     0.00000000000E+000   0.00000000000E+000   0.00000000000E+000   0.00000000000E+000   0.00000000000E+000   0.00000000000E+000   0.00000000000E+000   0.00000000000E+000   0.00000000000E+000   0.00000000000E+000   0.00000000000E+000   0.00000000000E+000   0.00000000000E+000   0.00000000000E+000   0.00000000000E+000   0.00000000000E+000   0.00000000000E+000   0.00000000000E+000   0.00000000000E+000   0.00000000000E+000   0.00000000000E+000   0.00000000000E+000   0.00000000000E+000   0.00000000000E+000   0.00000000000E+000   0.00000000000E+000   0.00000000000E+000   0.00000000000E+000   0.00000000000E+000   0.00000000000E+000   0.00000000000E+000   0.00000000000E+000   0.00000000000E+000   0.00000000000E+000   0.00000000000E+000   0.00000000000E+000   0.00000000000E+000
    -6.86001893231E+003   0.00000000000E+000   0.00000000000E+000   0.00000000000E+000   0.00000000000E+000   0.00000000000E+000  -2.82174503275E+005   0.00000000000E+000   0.00000000000E+000   0.00000000000E+000   0.00000000000E+000   0.00000000000E+000  -9.38083794618E+006   0.00000000000E+000   1.99512100047E+001   0.00000000000E+000   9.82680351759E+007   0.00000000000E+000   0.00000000000E+000   0.00000000000E+000   0.00000000000E+000   0.00000000000E+000   0.00000000000E+000   0.00000000000E+000   0.00000000000E+000   0.00000000000E+000   0.00000000000E+000   0.00000000000E+000   0.00000000000E+000   0.00000000000E+000   0.00000000000E+000   0.00000000000E+000   0.00000000000E+000   0.00000000000E+000   0.00000000000E+000   0.00000000000E+000   0.00000000000E+000
     0.00000000000E+000   0.00000000000E+000   0.00000000000E+000   0.00000000000E+000   0.00000000000E+000   0.00000000000E+000   0.00000000000E+000  -2.82174087625E+005   0.00000000000E+000   0.00000000000E+000   0.00000000000E+000   0.00000000000E+000   0.00000000000E+000  -9.38088807999E+006   0.00000000000E+000  -9.82662375208E+007   0.00000000000E+000   1.78567767633E+003   0.00000000000E+000   0.00000000000E+000   0.00000000000E+000   0.00000000000E+000   0.00000000000E+000   0.00000000000E+000   0.00000000000E+000   0.00000000000E+000   0.00000000000E+000   0.00000000000E+000   0.00000000000E+000   0.00000000000E+000   0.00000000000E+000   0.00000000000E+000   0.00000000000E+000   0.00000000000E+000   0.00000000000E+000   0.00000000000E+000   0.00000000000E+000
     0.00000000000E+000   0.00000000000E+000  -4.39481570682E+006   0.00000000000E+000   3.66692991724E+003   0.00000000000E+000   0.00000000000E+000   0.00000000000E+000  -8.07313946741E+005   0.00000000000E+000   0.00000000000E+000   0.00000000000E+000   0.00000000000E+000   0.00000000000E+000  -2.41348170867E+007   0.00000000000E+000   1.78762833466E+004   0.00000000000E+000   0.00000000000E+000   0.00000000000E+000   0.00000000000E+000   0.00000000000E+000   0.00000000000E+000   0.00000000000E+000   0.00000000000E+000   0.00000000000E+000   0.00000000000E+000   0.00000000000E+000   0.00000000000E+000   0.00000000000E+000   0.00000000000E+000   0.00000000000E+000   0.00000000000E+000   0.00000000000E+000   0.00000000000E+000   0.00000000000E+000   0.00000000000E+000
     0.00000000000E+000   2.03870475636E+008  -3.60144919059E+003  -2.13421463291E+009   0.00000000000E+000   8.88084589332E+004   0.00000000000E+000   0.00000000000E+000   0.00000000000E+000  -2.78328964697E+009   0.00000000000E+000   0.00000000000E+000   0.00000000000E+000  -9.82010097437E+007   0.00000000000E+000  -1.13246530020E+010   0.00000000000E+000   5.30558922401E+004   0.00000000000E+000  -2.03870475636E+008   3.60144919059E+003   0.00000000000E+000   0.00000000000E+000   0.00000000000E+000   0.00000000000E+000   0.00000000000E+000   0.00000000000E+000   0.00000000000E+000   0.00000000000E+000   0.00000000000E+000   0.00000000000E+000   0.00000000000E+000   0.00000000000E+000   0.00000000000E+000   0.00000000000E+000   0.00000000000E+000   0.00000000000E+000
    -2.03870442895E+008   0.00000000000E+000  -8.52561244753E+004   0.00000000000E+000  -2.13398109531E+009   0.00000000000E+000   0.00000000000E+000   0.00000000000E+000   0.00000000000E+000   0.00000000000E+000  -2.78327727108E+009   0.00000000000E+000   9.82036617200E+007   0.00000000000E+000   1.93168638404E+004   0.00000000000E+000  -1.13240534590E+010   0.00000000000E+000   2.03870442895E+008   0.00000000000E+000   8.91849781378E+004   0.00000000000E+000   0.00000000000E+000   0.00000000000E+000   0.00000000000E+000   0.00000000000E+000   0.00000000000E+000   0.00000000000E+000   0.00000000000E+000   0.00000000000E+000   0.00000000000E+000   0.00000000000E+000   0.00000000000E+000   0.00000000000E+000   0.00000000000E+000   0.00000000000E+000   0.00000000000E+000
     3.60733223969E+003   8.92780837845E+004   0.00000000000E+000   0.00000000000E+000   0.00000000000E+000   0.00000000000E+000   0.00000000000E+000   0.00000000000E+000   0.00000000000E+000   0.00000000000E+000   0.00000000000E+000  -2.51327434578E+009   0.00000000000E+000   1.55338074818E+003   0.00000000000E+000   4.40407593625E+004  -8.95246561827E-001  -1.95913504720E+010  -3.60733223969E+003  -8.92780837845E+004   0.00000000000E+000   0.00000000000E+000   0.00000000000E+000   0.00000000000E+000   0.00000000000E+000   0.00000000000E+000   0.00000000000E+000   0.00000000000E+000   0.00000000000E+000   0.00000000000E+000   0.00000000000E+000   0.00000000000E+000   0.00000000000E+000   0.00000000000E+000   0.00000000000E+000   0.00000000000E+000   0.00000000000E+000
