
Linearized model: Predictions were generated on 12-Jan-2024 at 09:28:28 using OpenFAST, compiled as a 64-bit application using single precision at commit v3.5.1
 linked with  NWTC Subroutine Library; ElastoDyn; InflowWind; AeroDyn; ServoDyn; HydroDyn; MAP++ (<1.20.10>, <Oct-20-2023>)

Description from the FAST input file: CCT-9 Campign 4 model. Input files to be run with OpenFAST 3.5.0. GitHub branch from Lu Wang (https://github.com/luwang00/openfast/tree/dev) compiled on March 7, 2023.

Simulation information:
   Simulation time:                   507.6750 s
   Rotor Speed:                         0.8780 rad/s
   Azimuth:                             4.3064 rad
   Wind Speed:                         10.0000 m/s
   Number of continuous states:         0
   Number of discrete states:           0
   Number of constraint states:         0
   Number of inputs:                 1746
   Number of outputs:                   4
   Jacobians included in this file?    No

Order of inputs:
     Column   Operating Point                     Rotating Frame? Derivative Order Description
   ---------- ---------------                     --------------- ---------------- -----------
          1    1.099E+01                                 F               0         Tower X translation displacement, node 1, m
          2   -1.210E+00                                 F               0         Tower Y translation displacement, node 1, m
          3   -3.080E-01                                 F               0         Tower Z translation displacement, node 1, m
          4    1.245E+01                                 F               0         Tower X translation displacement, node 2, m
          5   -1.786E+00                                 F               0         Tower Y translation displacement, node 2, m
          6   -4.090E-01                                 F               0         Tower Z translation displacement, node 2, m
          7    1.395E+01                                 F               0         Tower X translation displacement, node 3, m
          8   -2.368E+00                                 F               0         Tower Y translation displacement, node 3, m
          9   -5.133E-01                                 F               0         Tower Z translation displacement, node 3, m
         10    1.546E+01                                 F               0         Tower X translation displacement, node 4, m
         11   -2.954E+00                                 F               0         Tower Y translation displacement, node 4, m
         12   -6.200E-01                                 F               0         Tower Z translation displacement, node 4, m
         13    1.698E+01                                 F               0         Tower X translation displacement, node 5, m
         14   -3.544E+00                                 F               0         Tower Y translation displacement, node 5, m
         15   -7.288E-01                                 F               0         Tower Z translation displacement, node 5, m
         16    1.852E+01                                 F               0         Tower X translation displacement, node 6, m
         17   -4.137E+00                                 F               0         Tower Y translation displacement, node 6, m
         18   -8.394E-01                                 F               0         Tower Z translation displacement, node 6, m
         19    2.007E+01                                 F               0         Tower X translation displacement, node 7, m
         20   -4.733E+00                                 F               0         Tower Y translation displacement, node 7, m
         21   -9.512E-01                                 F               0         Tower Z translation displacement, node 7, m
         22    2.162E+01                                 F               0         Tower X translation displacement, node 8, m
         23   -5.330E+00                                 F               0         Tower Y translation displacement, node 8, m
         24   -1.064E+00                                 F               0         Tower Z translation displacement, node 8, m
         25    2.319E+01                                 F               0         Tower X translation displacement, node 9, m
         26   -5.930E+00                                 F               0         Tower Y translation displacement, node 9, m
         27   -1.178E+00                                 F               0         Tower Z translation displacement, node 9, m
         28    2.475E+01                                 F               0         Tower X translation displacement, node 10, m
         29   -6.530E+00                                 F               0         Tower Y translation displacement, node 10, m
         30   -1.292E+00                                 F               0         Tower Z translation displacement, node 10, m
         31    2.631E+01                                 F               0         Tower X translation displacement, node 11, m
         32   -7.131E+00                                 F               0         Tower Y translation displacement, node 11, m
         33   -1.406E+00                                 F               0         Tower Z translation displacement, node 11, m
         34    9.930E-01,  1.020E-02, -1.176E-01         F               0         Tower X orientation angle, node 1, rad
         35   -4.653E-03,  9.989E-01,  4.734E-02         F               0         Tower Y orientation angle, node 1, rad
         36    1.180E-01, -4.646E-02,  9.919E-01         F               0         Tower Z orientation angle, node 1, rad
         37    9.928E-01,  1.029E-02, -1.195E-01         F               0         Tower X orientation angle, node 2, rad
         38   -4.601E-03,  9.988E-01,  4.778E-02         F               0         Tower Y orientation angle, node 2, rad
         39    1.199E-01, -4.688E-02,  9.917E-01         F               0         Tower Z orientation angle, node 2, rad
         40    9.926E-01,  1.037E-02, -1.211E-01         F               0         Tower X orientation angle, node 3, rad
         41   -4.554E-03,  9.988E-01,  4.817E-02         F               0         Tower Y orientation angle, node 3, rad
         42    1.215E-01, -4.726E-02,  9.915E-01         F               0         Tower Z orientation angle, node 3, rad
         43    9.924E-01,  1.043E-02, -1.225E-01         F               0         Tower X orientation angle, node 4, rad
         44   -4.512E-03,  9.988E-01,  4.851E-02         F               0         Tower Y orientation angle, node 4, rad
         45    1.229E-01, -4.759E-02,  9.913E-01         F               0         Tower Z orientation angle, node 4, rad
         46    9.923E-01,  1.049E-02, -1.237E-01         F               0         Tower X orientation angle, node 5, rad
         47   -4.475E-03,  9.988E-01,  4.880E-02         F               0         Tower Y orientation angle, node 5, rad
         48    1.240E-01, -4.787E-02,  9.911E-01         F               0         Tower Z orientation angle, node 5, rad
         49    9.922E-01,  1.053E-02, -1.246E-01         F               0         Tower X orientation angle, node 6, rad
         50   -4.445E-03,  9.988E-01,  4.905E-02         F               0         Tower Y orientation angle, node 6, rad
         51    1.249E-01, -4.811E-02,  9.910E-01         F               0         Tower Z orientation angle, node 6, rad
         52    9.921E-01,  1.057E-02, -1.252E-01         F               0         Tower X orientation angle, node 7, rad
         53   -4.420E-03,  9.988E-01,  4.924E-02         F               0         Tower Y orientation angle, node 7, rad
         54    1.256E-01, -4.830E-02,  9.909E-01         F               0         Tower Z orientation angle, node 7, rad
         55    9.920E-01,  1.059E-02, -1.257E-01         F               0         Tower X orientation angle, node 8, rad
         56   -4.401E-03,  9.988E-01,  4.939E-02         F               0         Tower Y orientation angle, node 8, rad
         57    1.261E-01, -4.844E-02,  9.908E-01         F               0         Tower Z orientation angle, node 8, rad
         58    9.920E-01,  1.061E-02, -1.261E-01         F               0         Tower X orientation angle, node 9, rad
         59   -4.387E-03,  9.988E-01,  4.950E-02         F               0         Tower Y orientation angle, node 9, rad
         60    1.265E-01, -4.855E-02,  9.908E-01         F               0         Tower Z orientation angle, node 9, rad
         61    9.919E-01,  1.062E-02, -1.263E-01         F               0         Tower X orientation angle, node 10, rad
         62   -4.377E-03,  9.988E-01,  4.958E-02         F               0         Tower Y orientation angle, node 10, rad
         63    1.267E-01, -4.862E-02,  9.908E-01         F               0         Tower Z orientation angle, node 10, rad
         64    9.919E-01,  1.062E-02, -1.264E-01         F               0         Tower X orientation angle, node 11, rad
         65   -4.372E-03,  9.988E-01,  4.962E-02         F               0         Tower Y orientation angle, node 11, rad
         66    1.268E-01, -4.866E-02,  9.907E-01         F               0         Tower Z orientation angle, node 11, rad
         67   -5.110E-03                                 F               0         Tower X translation velocity, node 1, m/s
         68    8.178E-03                                 F               0         Tower Y translation velocity, node 1, m/s
         69    4.898E-03                                 F               0         Tower Z translation velocity, node 1, m/s
         70   -5.259E-03                                 F               0         Tower X translation velocity, node 2, m/s
         71    1.335E-02                                 F               0         Tower Y translation velocity, node 2, m/s
         72    5.159E-03                                 F               0         Tower Z translation velocity, node 2, m/s
         73   -5.336E-03                                 F               0         Tower X translation velocity, node 3, m/s
         74    1.856E-02                                 F               0         Tower Y translation velocity, node 3, m/s
         75    5.416E-03                                 F               0         Tower Z translation velocity, node 3, m/s
         76   -5.356E-03                                 F               0         Tower X translation velocity, node 4, m/s
         77    2.380E-02                                 F               0         Tower Y translation velocity, node 4, m/s
         78    5.670E-03                                 F               0         Tower Z translation velocity, node 4, m/s
         79   -5.328E-03                                 F               0         Tower X translation velocity, node 5, m/s
         80    2.908E-02                                 F               0         Tower Y translation velocity, node 5, m/s
         81    5.920E-03                                 F               0         Tower Z translation velocity, node 5, m/s
         82   -5.260E-03                                 F               0         Tower X translation velocity, node 6, m/s
         83    3.438E-02                                 F               0         Tower Y translation velocity, node 6, m/s
         84    6.169E-03                                 F               0         Tower Z translation velocity, node 6, m/s
         85   -5.160E-03                                 F               0         Tower X translation velocity, node 7, m/s
         86    3.970E-02                                 F               0         Tower Y translation velocity, node 7, m/s
         87    6.415E-03                                 F               0         Tower Z translation velocity, node 7, m/s
         88   -5.033E-03                                 F               0         Tower X translation velocity, node 8, m/s
         89    4.504E-02                                 F               0         Tower Y translation velocity, node 8, m/s
         90    6.659E-03                                 F               0         Tower Z translation velocity, node 8, m/s
         91   -4.886E-03                                 F               0         Tower X translation velocity, node 9, m/s
         92    5.039E-02                                 F               0         Tower Y translation velocity, node 9, m/s
         93    6.903E-03                                 F               0         Tower Z translation velocity, node 9, m/s
         94   -4.726E-03                                 F               0         Tower X translation velocity, node 10, m/s
         95    5.575E-02                                 F               0         Tower Y translation velocity, node 10, m/s
         96    7.145E-03                                 F               0         Tower Z translation velocity, node 10, m/s
         97   -4.556E-03                                 F               0         Tower X translation velocity, node 11, m/s
         98    6.112E-02                                 F               0         Tower Y translation velocity, node 11, m/s
         99    7.387E-03                                 F               0         Tower Z translation velocity, node 11, m/s
        100    2.740E+01                                 F               0         Hub X translation displacement, node 1, m
        101   -7.628E+00                                 F               0         Hub Y translation displacement, node 1, m
        102   -1.137E-01                                 F               0         Hub Z translation displacement, node 1, m
        103    9.732E-01,  1.565E-02, -2.293E-01         F               0         Hub X orientation angle, node 1, rad
        104   -2.094E-01, -3.510E-01, -9.127E-01         F               0         Hub Y orientation angle, node 1, rad
        105   -9.476E-02,  9.362E-01, -3.383E-01         F               0         Hub Z orientation angle, node 1, rad
        106    8.541E-01                                 F               0         Hub X rotation velocity, node 1, rad/s
        107    1.375E-02                                 F               0         Hub Y rotation velocity, node 1, rad/s
        108   -2.012E-01                                 F               0         Hub Z rotation velocity, node 1, rad/s
        109    9.790E-01,  2.606E-02, -2.021E-01         F               0         Blade root 1 X orientation angle, node 1, rad
        110   -1.804E-01, -3.504E-01, -9.191E-01         F               0         Blade root 1 Y orientation angle, node 1, rad
        111   -9.476E-02,  9.362E-01, -3.383E-01         F               0         Blade root 1 Z orientation angle, node 1, rad
        112    9.721E-01, -1.362E-02, -2.340E-01         F               0         Blade root 2 X orientation angle, node 1, rad
        113    5.148E-02,  9.863E-01,  1.565E-01         F               0         Blade root 2 Y orientation angle, node 1, rad
        114    2.287E-01, -1.641E-01,  9.596E-01         F               0         Blade root 2 Z orientation angle, node 1, rad
        115    9.673E-01,  3.449E-02, -2.514E-01         F               0         Blade root 3 X orientation angle, node 1, rad
        116    2.155E-01, -6.346E-01,  7.422E-01         F               0         Blade root 3 Y orientation angle, node 1, rad
        117   -1.339E-01, -7.721E-01, -6.212E-01         F               0         Blade root 3 Z orientation angle, node 1, rad
        118    2.629E+01                                 F               0         Blade 1 X translation displacement, node 1, m
        119   -2.441E+00                                 F               0         Blade 1 Y translation displacement, node 1, m
        120   -7.498E+00                                 F               0         Blade 1 Z translation displacement, node 1, m
        121    2.603E+01                                 F               0         Blade 1 X translation displacement, node 2, m
        122   -1.191E+00                                 F               0         Blade 1 Y translation displacement, node 2, m
        123   -9.277E+00                                 F               0         Blade 1 Z translation displacement, node 2, m
        124    2.241E+01                                 F               0         Blade 1 X translation displacement, node 3, m
        125    1.580E+01                                 F               0         Blade 1 Y translation displacement, node 3, m
        126   -3.347E+01                                 F               0         Blade 1 Z translation displacement, node 3, m
        127    2.164E+01                                 F               0         Blade 1 X translation displacement, node 4, m
        128    1.942E+01                                 F               0         Blade 1 Y translation displacement, node 4, m
        129   -3.863E+01                                 F               0         Blade 1 Z translation displacement, node 4, m
        130    2.087E+01                                 F               0         Blade 1 X translation displacement, node 5, m
        131    2.305E+01                                 F               0         Blade 1 Y translation displacement, node 5, m
        132   -4.378E+01                                 F               0         Blade 1 Z translation displacement, node 5, m
        133    2.010E+01                                 F               0         Blade 1 X translation displacement, node 6, m
        134    2.667E+01                                 F               0         Blade 1 Y translation displacement, node 6, m
        135   -4.894E+01                                 F               0         Blade 1 Z translation displacement, node 6, m
        136    1.933E+01                                 F               0         Blade 1 X translation displacement, node 7, m
        137    3.029E+01                                 F               0         Blade 1 Y translation displacement, node 7, m
        138   -5.409E+01                                 F               0         Blade 1 Z translation displacement, node 7, m
        139    1.856E+01                                 F               0         Blade 1 X translation displacement, node 8, m
        140    3.391E+01                                 F               0         Blade 1 Y translation displacement, node 8, m
        141   -5.925E+01                                 F               0         Blade 1 Z translation displacement, node 8, m
        142    1.779E+01                                 F               0         Blade 1 X translation displacement, node 9, m
        143    3.753E+01                                 F               0         Blade 1 Y translation displacement, node 9, m
        144   -6.440E+01                                 F               0         Blade 1 Z translation displacement, node 9, m
        145    1.701E+01                                 F               0         Blade 1 X translation displacement, node 10, m
        146    4.115E+01                                 F               0         Blade 1 Y translation displacement, node 10, m
        147   -6.956E+01                                 F               0         Blade 1 Z translation displacement, node 10, m
        148    1.624E+01                                 F               0         Blade 1 X translation displacement, node 11, m
        149    4.477E+01                                 F               0         Blade 1 Y translation displacement, node 11, m
        150   -7.471E+01                                 F               0         Blade 1 Z translation displacement, node 11, m
        151    1.547E+01                                 F               0         Blade 1 X translation displacement, node 12, m
        152    4.839E+01                                 F               0         Blade 1 Y translation displacement, node 12, m
        153   -7.987E+01                                 F               0         Blade 1 Z translation displacement, node 12, m
        154    1.470E+01                                 F               0         Blade 1 X translation displacement, node 13, m
        155    5.201E+01                                 F               0         Blade 1 Y translation displacement, node 13, m
        156   -8.502E+01                                 F               0         Blade 1 Z translation displacement, node 13, m
        157    1.393E+01                                 F               0         Blade 1 X translation displacement, node 14, m
        158    5.564E+01                                 F               0         Blade 1 Y translation displacement, node 14, m
        159   -9.018E+01                                 F               0         Blade 1 Z translation displacement, node 14, m
        160    1.316E+01                                 F               0         Blade 1 X translation displacement, node 15, m
        161    5.926E+01                                 F               0         Blade 1 Y translation displacement, node 15, m
        162   -9.533E+01                                 F               0         Blade 1 Z translation displacement, node 15, m
        163    1.239E+01                                 F               0         Blade 1 X translation displacement, node 16, m
        164    6.288E+01                                 F               0         Blade 1 Y translation displacement, node 16, m
        165   -1.005E+02                                 F               0         Blade 1 Z translation displacement, node 16, m
        166    1.162E+01                                 F               0         Blade 1 X translation displacement, node 17, m
        167    6.650E+01                                 F               0         Blade 1 Y translation displacement, node 17, m
        168   -1.056E+02                                 F               0         Blade 1 Z translation displacement, node 17, m
        169    1.085E+01                                 F               0         Blade 1 X translation displacement, node 18, m
        170    7.012E+01                                 F               0         Blade 1 Y translation displacement, node 18, m
        171   -1.108E+02                                 F               0         Blade 1 Z translation displacement, node 18, m
        172    1.008E+01                                 F               0         Blade 1 X translation displacement, node 19, m
        173    7.374E+01                                 F               0         Blade 1 Y translation displacement, node 19, m
        174   -1.160E+02                                 F               0         Blade 1 Z translation displacement, node 19, m
        175    9.307E+00                                 F               0         Blade 1 X translation displacement, node 20, m
        176    7.736E+01                                 F               0         Blade 1 Y translation displacement, node 20, m
        177   -1.211E+02                                 F               0         Blade 1 Z translation displacement, node 20, m
        178    8.536E+00                                 F               0         Blade 1 X translation displacement, node 21, m
        179    8.098E+01                                 F               0         Blade 1 Y translation displacement, node 21, m
        180   -1.263E+02                                 F               0         Blade 1 Z translation displacement, node 21, m
        181    7.765E+00                                 F               0         Blade 1 X translation displacement, node 22, m
        182    8.461E+01                                 F               0         Blade 1 Y translation displacement, node 22, m
        183   -1.314E+02                                 F               0         Blade 1 Z translation displacement, node 22, m
        184    6.994E+00                                 F               0         Blade 1 X translation displacement, node 23, m
        185    8.823E+01                                 F               0         Blade 1 Y translation displacement, node 23, m
        186   -1.366E+02                                 F               0         Blade 1 Z translation displacement, node 23, m
        187    6.223E+00                                 F               0         Blade 1 X translation displacement, node 24, m
        188    9.185E+01                                 F               0         Blade 1 Y translation displacement, node 24, m
        189   -1.417E+02                                 F               0         Blade 1 Z translation displacement, node 24, m
        190    5.453E+00                                 F               0         Blade 1 X translation displacement, node 25, m
        191    9.547E+01                                 F               0         Blade 1 Y translation displacement, node 25, m
        192   -1.469E+02                                 F               0         Blade 1 Z translation displacement, node 25, m
        193    4.682E+00                                 F               0         Blade 1 X translation displacement, node 26, m
        194    9.909E+01                                 F               0         Blade 1 Y translation displacement, node 26, m
        195   -1.520E+02                                 F               0         Blade 1 Z translation displacement, node 26, m
        196    3.911E+00                                 F               0         Blade 1 X translation displacement, node 27, m
        197    1.027E+02                                 F               0         Blade 1 Y translation displacement, node 27, m
        198   -1.572E+02                                 F               0         Blade 1 Z translation displacement, node 27, m
        199    3.258E+00                                 F               0         Blade 1 X translation displacement, node 28, m
        200    1.058E+02                                 F               0         Blade 1 Y translation displacement, node 28, m
        201   -1.616E+02                                 F               0         Blade 1 Z translation displacement, node 28, m
        202    9.536E-01,  1.830E-01,  2.393E-01         F               0         Blade 1 X orientation angle, node 1, rad
        203    2.859E-01, -2.999E-01, -9.101E-01         F               0         Blade 1 Y orientation angle, node 1, rad
        204   -9.476E-02,  9.362E-01, -3.383E-01         F               0         Blade 1 Z orientation angle, node 1, rad
        205    9.536E-01,  1.830E-01,  2.393E-01         F               0         Blade 1 X orientation angle, node 2, rad
        206    2.859E-01, -2.999E-01, -9.101E-01         F               0         Blade 1 Y orientation angle, node 2, rad
        207   -9.476E-02,  9.362E-01, -3.383E-01         F               0         Blade 1 Z orientation angle, node 2, rad
        208    9.942E-01,  1.067E-01,  1.673E-02         F               0         Blade 1 X orientation angle, node 3, rad
        209    5.175E-02, -3.348E-01, -9.409E-01         F               0         Blade 1 Y orientation angle, node 3, rad
        210   -9.476E-02,  9.362E-01, -3.383E-01         F               0         Blade 1 Z orientation angle, node 3, rad
        211    9.955E-01,  9.243E-02, -2.301E-02         F               0         Blade 1 X orientation angle, node 4, rad
        212    9.729E-03, -3.390E-01, -9.407E-01         F               0         Blade 1 Y orientation angle, node 4, rad
        213   -9.476E-02,  9.362E-01, -3.383E-01         F               0         Blade 1 Z orientation angle, node 4, rad
        214    9.952E-01,  8.114E-02, -5.419E-02         F               0         Blade 1 X orientation angle, node 5, rad
        215   -2.328E-02, -3.419E-01, -9.395E-01         F               0         Blade 1 Y orientation angle, node 5, rad
        216   -9.476E-02,  9.362E-01, -3.383E-01         F               0         Blade 1 Z orientation angle, node 5, rad
        217    9.943E-01,  7.205E-02, -7.909E-02         F               0         Blade 1 X orientation angle, node 6, rad
        218   -4.967E-02, -3.439E-01, -9.377E-01         F               0         Blade 1 Y orientation angle, node 6, rad
        219   -9.476E-02,  9.362E-01, -3.383E-01         F               0         Blade 1 Z orientation angle, node 6, rad
        220    9.929E-01,  6.453E-02, -9.953E-02         F               0         Blade 1 X orientation angle, node 7, rad
        221   -7.135E-02, -3.454E-01, -9.357E-01         F               0         Blade 1 Y orientation angle, node 7, rad
        222   -9.476E-02,  9.362E-01, -3.383E-01         F               0         Blade 1 Z orientation angle, node 7, rad
        223    9.915E-01,  5.825E-02, -1.165E-01         F               0         Blade 1 X orientation angle, node 8, rad
        224   -8.936E-02, -3.465E-01, -9.338E-01         F               0         Blade 1 Y orientation angle, node 8, rad
        225   -9.476E-02,  9.362E-01, -3.383E-01         F               0         Blade 1 Z orientation angle, node 8, rad
        226    9.900E-01,  5.292E-02, -1.308E-01         F               0         Blade 1 X orientation angle, node 9, rad
        227   -1.046E-01, -3.473E-01, -9.319E-01         F               0         Blade 1 Y orientation angle, node 9, rad