
Linearized model: Predictions were generated on 13-Feb-2024 at 12:12:09 using OpenFAST, compiled as a 64-bit application using single precision at commit v3.5.1
 linked with  NWTC Subroutine Library; ElastoDyn; InflowWind; AeroDyn; ServoDyn; HydroDyn; MAP++ (<1.20.10>, <Oct-20-2023>)

Description from the FAST input file: CCT-9 Campign 4 model. Input files to be run with OpenFAST 3.5.0. GitHub branch from Lu Wang (https://github.com/luwang00/openfast/tree/dev) compiled on March 7, 2023.

Simulation information:
   Simulation time:                   775.5250 s
   Rotor Speed:                         0.7917 rad/s
   Azimuth:                             4.0302 rad
   Wind Speed:                         24.0000 m/s
   Number of continuous states:         0
   Number of discrete states:           0
   Number of constraint states:         0
   Number of inputs:                  303
   Number of outputs:                   1
   Jacobians included in this file?    No

Order of inputs:
     Column   Operating Point                                                   Rotating Frame? Derivative Order Description
   ---------- ---------------                                                   --------------- ---------------- -----------
          1    -1.08005075455E+001                                                     F               0         X-component position of node 1 (hub), m
          2     0.00000000000E+000                                                     F               0         Y-component position of node 1 (hub), m
          3     1.49740173340E+002                                                     F               0         Z-component position of node 1 (hub), m
          4     1.01433362961E+001                                                     F               0         X-component position of node 2 (blade 1, node 1), m
          5    -4.72069120407E+000                                                     F               0         Y-component position of node 2 (blade 1, node 1), m
          6     1.46587615967E+002                                                     F               0         Z-component position of node 2 (blade 1, node 1), m
          7     9.98419952393E+000                                                     F               0         X-component position of node 3 (blade 1, node 2), m
          8    -3.63716816902E+000                                                     F               0         Y-component position of node 3 (blade 1, node 2), m
          9     1.45824310303E+002                                                     F               0         Z-component position of node 3 (blade 1, node 2), m
         10     7.82022094727E+000                                                     F               0         X-component position of node 4 (blade 1, node 3), m
         11     1.10968637466E+001                                                     F               0         Y-component position of node 4 (blade 1, node 3), m
         12     1.35444747925E+002                                                     F               0         Z-component position of node 4 (blade 1, node 3), m
         13     7.35917425156E+000                                                     F               0         X-component position of node 5 (blade 1, node 4), m
         14     1.42360363007E+001                                                     F               0         Y-component position of node 5 (blade 1, node 4), m
         15     1.33233322144E+002                                                     F               0         Z-component position of node 5 (blade 1, node 4), m
         16     6.89803695679E+000                                                     F               0         X-component position of node 6 (blade 1, node 5), m
         17     1.73758068085E+001                                                     F               0         Y-component position of node 6 (blade 1, node 5), m
         18     1.31021469116E+002                                                     F               0         Z-component position of node 6 (blade 1, node 5), m
         19     6.43698740005E+000                                                     F               0         X-component position of node 7 (blade 1, node 6), m
         20     2.05149917603E+001                                                     F               0         Y-component position of node 7 (blade 1, node 6), m
         21     1.28810043335E+002                                                     F               0         Z-component position of node 7 (blade 1, node 6), m
         22     5.97593545914E+000                                                     F               0         X-component position of node 8 (blade 1, node 7), m
         23     2.36541862488E+001                                                     F               0         Y-component position of node 8 (blade 1, node 7), m
         24     1.26598594666E+002                                                     F               0         Z-component position of node 8 (blade 1, node 7), m
         25     5.51480102539E+000                                                     F               0         X-component position of node 9 (blade 1, node 8), m
         26     2.67939434052E+001                                                     F               0         Y-component position of node 9 (blade 1, node 8), m
         27     1.24386749268E+002                                                     F               0         Z-component position of node 9 (blade 1, node 8), m
         28     5.05374813080E+000                                                     F               0         X-component position of node 10 (blade 1, node 9), m
         29     2.99331398010E+001                                                     F               0         Y-component position of node 10 (blade 1, node 9), m
         30     1.22175308228E+002                                                     F               0         Z-component position of node 10 (blade 1, node 9), m
         31     4.59269857407E+000                                                     F               0         X-component position of node 11 (blade 1, node 10), m
         32     3.30723266602E+001                                                     F               0         Y-component position of node 11 (blade 1, node 10), m
         33     1.19963874817E+002                                                     F               0         Z-component position of node 11 (blade 1, node 10), m
         34     4.13164567947E+000                                                     F               0         X-component position of node 12 (blade 1, node 11), m
         35     3.62115211487E+001                                                     F               0         Y-component position of node 12 (blade 1, node 11), m
         36     1.17752426147E+002                                                     F               0         Z-component position of node 12 (blade 1, node 11), m
         37     3.67051577568E+000                                                     F               0         X-component position of node 13 (blade 1, node 12), m
         38     3.93512687683E+001                                                     F               0         Y-component position of node 13 (blade 1, node 12), m
         39     1.15540596008E+002                                                     F               0         Z-component position of node 13 (blade 1, node 12), m
         40     3.20946240425E+000                                                     F               0         X-component position of node 14 (blade 1, node 13), m
         41     4.24904670715E+001                                                     F               0         Y-component position of node 14 (blade 1, node 13), m
         42     1.13329147339E+002                                                     F               0         Z-component position of node 14 (blade 1, node 13), m
         43     2.74841284752E+000                                                     F               0         X-component position of node 15 (blade 1, node 14), m
         44     4.56296501160E+001                                                     F               0         Y-component position of node 15 (blade 1, node 14), m
         45     1.11117713928E+002                                                     F               0         Z-component position of node 15 (blade 1, node 14), m
         46     2.28727674484E+000                                                     F               0         X-component position of node 16 (blade 1, node 15), m
         47     4.87694168091E+001                                                     F               0         Y-component position of node 16 (blade 1, node 15), m
         48     1.08905868530E+002                                                     F               0         Z-component position of node 16 (blade 1, node 15), m
         49     1.82622683048E+000                                                     F               0         X-component position of node 17 (blade 1, node 16), m
         50     5.19086036682E+001                                                     F               0         Y-component position of node 17 (blade 1, node 16), m
         51     1.06694427490E+002                                                     F               0         Z-component position of node 17 (blade 1, node 16), m
         52     1.36517369747E+000                                                     F               0         X-component position of node 18 (blade 1, node 17), m
         53     5.50478057861E+001                                                     F               0         Y-component position of node 18 (blade 1, node 17), m
         54     1.04482978821E+002                                                     F               0         Z-component position of node 18 (blade 1, node 17), m
         55     9.04123425484E-001                                                     F               0         X-component position of node 19 (blade 1, node 18), m
         56     5.81869926453E+001                                                     F               0         Y-component position of node 19 (blade 1, node 18), m
         57     1.02271545410E+002                                                     F               0         Z-component position of node 19 (blade 1, node 18), m
         58     4.42991644144E-001                                                     F               0         X-component position of node 20 (blade 1, node 19), m
         59     6.13267364502E+001                                                     F               0         Y-component position of node 20 (blade 1, node 19), m
         60     1.00059715271E+002                                                     F               0         Z-component position of node 20 (blade 1, node 19), m
         61    -1.80618036538E-002                                                     F               0         X-component position of node 21 (blade 1, node 20), m
         62     6.44659347534E+001                                                     F               0         Y-component position of node 21 (blade 1, node 20), m
         63     9.78482742310E+001                                                     F               0         Z-component position of node 21 (blade 1, node 20), m
         64    -4.79111760855E-001                                                     F               0         X-component position of node 22 (blade 1, node 21), m
         65     6.76051254272E+001                                                     F               0         Y-component position of node 22 (blade 1, node 21), m
         66     9.56368255615E+001                                                     F               0         Z-component position of node 22 (blade 1, node 21), m
         67    -9.40246284008E-001                                                     F               0         X-component position of node 23 (blade 1, node 22), m
         68     7.07448806763E+001                                                     F               0         Y-component position of node 23 (blade 1, node 22), m
         69     9.34249877930E+001                                                     F               0         Z-component position of node 23 (blade 1, node 22), m
         70    -1.40129959583E+000                                                     F               0         X-component position of node 24 (blade 1, node 23), m
         71     7.38840789795E+001                                                     F               0         Y-component position of node 24 (blade 1, node 23), m
         72     9.12135467529E+001                                                     F               0         Z-component position of node 24 (blade 1, node 23), m
         73    -1.86234962940E+000                                                     F               0         X-component position of node 25 (blade 1, node 24), m
         74     7.70232696533E+001                                                     F               0         Y-component position of node 25 (blade 1, node 24), m
         75     8.90021057129E+001                                                     F               0         Z-component position of node 25 (blade 1, node 24), m
         76    -2.32339954376E+000                                                     F               0         X-component position of node 26 (blade 1, node 25), m
         77     8.01624526978E+001                                                     F               0         Y-component position of node 26 (blade 1, node 25), m
         78     8.67906646729E+001                                                     F               0         Z-component position of node 26 (blade 1, node 25), m
         79    -2.78453421593E+000                                                     F               0         X-component position of node 27 (blade 1, node 26), m
         80     8.33022155762E+001                                                     F               0         Y-component position of node 27 (blade 1, node 26), m
         81     8.45788192749E+001                                                     F               0         Z-component position of node 27 (blade 1, node 26), m
         82    -3.24558401108E+000                                                     F               0         X-component position of node 28 (blade 1, node 27), m
         83     8.64413986206E+001                                                     F               0         Y-component position of node 28 (blade 1, node 27), m
         84     8.23673934937E+001                                                     F               0         Z-component position of node 28 (blade 1, node 27), m
         85    -3.63645839691E+000                                                     F               0         X-component position of node 29 (blade 1, node 28), m
         86     8.91027679443E+001                                                     F               0         Y-component position of node 29 (blade 1, node 28), m
         87     8.04925537109E+001                                                     F               0         Z-component position of node 29 (blade 1, node 28), m
         88     1.19306116104E+001                                                     F               0         X-component position of node 30 (blade 2, node 1), m
         89    -8.66342830658E+000                                                     F               0         Y-component position of node 30 (blade 2, node 1), m
         90     1.55151214600E+002                                                     F               0         Z-component position of node 30 (blade 2, node 1), m
         91     1.22021312714E+001                                                     F               0         X-component position of node 31 (blade 2, node 2), m
         92    -8.52993583679E+000                                                     F               0         Y-component position of node 31 (blade 2, node 2), m
         93     1.56451370239E+002                                                     F               0         Z-component position of node 31 (blade 2, node 2), m
         94     1.58943490982E+001                                                     F               0         X-component position of node 32 (blade 2, node 3), m
         95    -6.71471548080E+000                                                     F               0         Y-component position of node 32 (blade 2, node 3), m
         96     1.74131378174E+002                                                     F               0         Z-component position of node 32 (blade 2, node 3), m
         97     1.66810016632E+001                                                     F               0         X-component position of node 33 (blade 2, node 4), m
         98    -6.32797193527E+000                                                     F               0         Y-component position of node 33 (blade 2, node 4), m
         99     1.77898223877E+002                                                     F               0         Z-component position of node 33 (blade 2, node 4), m
        100     1.74677982330E+001                                                     F               0         X-component position of node 34 (blade 2, node 5), m
        101    -5.94114685059E+000                                                     F               0         Y-component position of node 34 (blade 2, node 5), m
        102     1.81665756226E+002                                                     F               0         Z-component position of node 34 (blade 2, node 5), m
        103     1.82544536591E+001                                                     F               0         X-component position of node 35 (blade 2, node 6), m
        104    -5.55440378189E+000                                                     F               0         Y-component position of node 35 (blade 2, node 6), m
        105     1.85432601929E+002                                                     F               0         Z-component position of node 35 (blade 2, node 6), m
        106     1.90411071777E+001                                                     F               0         X-component position of node 36 (blade 2, node 7), m
        107    -5.16765785217E+000                                                     F               0         Y-component position of node 36 (blade 2, node 7), m
        108     1.89199447632E+002                                                     F               0         Z-component position of node 36 (blade 2, node 7), m
        109     1.98279037476E+001                                                     F               0         X-component position of node 37 (blade 2, node 8), m
        110    -4.78083419800E+000                                                     F               0         Y-component position of node 37 (blade 2, node 8), m
        111     1.92966979980E+002                                                     F               0         Z-component position of node 37 (blade 2, node 8), m
        112     2.06145572662E+001                                                     F               0         X-component position of node 38 (blade 2, node 9), m
        113    -4.39409017563E+000                                                     F               0         Y-component position of node 38 (blade 2, node 9), m
        114     1.96733825684E+002                                                     F               0         Z-component position of node 38 (blade 2, node 9), m
        115     2.14012107849E+001                                                     F               0         X-component position of node 39 (blade 2, node 10), m
        116    -4.00734090805E+000                                                     F               0         Y-component position of node 39 (blade 2, node 10), m
        117     2.00500671387E+002                                                     F               0         Z-component position of node 39 (blade 2, node 10), m
        118     2.21878662109E+001                                                     F               0         X-component position of node 40 (blade 2, node 11), m
        119    -3.62059402466E+000                                                     F               0         Y-component position of node 40 (blade 2, node 11), m
        120     2.04267532349E+002                                                     F               0         Z-component position of node 40 (blade 2, node 11), m
        121     2.29746627808E+001                                                     F               0         X-component position of node 41 (blade 2, node 12), m
        122    -3.23376893997E+000                                                     F               0         Y-component position of node 41 (blade 2, node 12), m
        123     2.08035064697E+002                                                     F               0         Z-component position of node 41 (blade 2, node 12), m
        124     2.37613143921E+001                                                     F               0         X-component position of node 42 (blade 2, node 13), m
        125    -2.84702658653E+000                                                     F               0         Y-component position of node 42 (blade 2, node 13), m
        126     2.11801910400E+002                                                     F               0         Z-component position of node 42 (blade 2, node 13), m
        127     2.45479698181E+001                                                     F               0         X-component position of node 43 (blade 2, node 14), m
        128    -2.46027445793E+000                                                     F               0         Y-component position of node 43 (blade 2, node 14), m
        129     2.15568756104E+002                                                     F               0         Z-component position of node 43 (blade 2, node 14), m
        130     2.53347663879E+001                                                     F               0         X-component position of node 44 (blade 2, node 15), m
        131    -2.07345938683E+000                                                     F               0         Y-component position of node 44 (blade 2, node 15), m
        132     2.19336303711E+002                                                     F               0         Z-component position of node 44 (blade 2, node 15), m
        133     2.61214179993E+001                                                     F               0         X-component position of node 45 (blade 2, node 16), m
        134    -1.68671739101E+000                                                     F               0         Y-component position of node 45 (blade 2, node 16), m
        135     2.23103149414E+002                                                     F               0         Z-component position of node 45 (blade 2, node 16), m
        136     2.69080734253E+001                                                     F               0         X-component position of node 46 (blade 2, node 17), m
        137    -1.29996991158E+000                                                     F               0         Y-component position of node 46 (blade 2, node 17), m
        138     2.26869995117E+002                                                     F               0         Z-component position of node 46 (blade 2, node 17), m
        139     2.76947250366E+001                                                     F               0         X-component position of node 47 (blade 2, node 18), m
        140    -9.13221180439E-001                                                     F               0         Y-component position of node 47 (blade 2, node 18), m
        141     2.30636840820E+002                                                     F               0         Z-component position of node 47 (blade 2, node 18), m
        142     2.84815235138E+001                                                     F               0         X-component position of node 48 (blade 2, node 19), m
        143    -5.26398420334E-001                                                     F               0         Y-component position of node 48 (blade 2, node 19), m
        144     2.34404373169E+002                                                     F               0         Z-component position of node 48 (blade 2, node 19), m
        145     2.92681770325E+001                                                     F               0         X-component position of node 49 (blade 2, node 20), m
        146    -1.39653965831E-001                                                     F               0         Y-component position of node 49 (blade 2, node 20), m
        147     2.38171218872E+002                                                     F               0         Z-component position of node 49 (blade 2, node 20), m
        148     3.00548324585E+001                                                     F               0         X-component position of node 50 (blade 2, node 21), m
        149     2.47100338340E-001                                                     F               0         Y-component position of node 50 (blade 2, node 21), m
        150     2.41938079834E+002                                                     F               0         Z-component position of node 50 (blade 2, node 21), m
        151     3.08416271210E+001                                                     F               0         X-component position of node 51 (blade 2, node 22), m
        152     6.33914768696E-001                                                     F               0         Y-component position of node 51 (blade 2, node 22), m
        153     2.45705612183E+002                                                     F               0         Z-component position of node 51 (blade 2, node 22), m
        154     3.16282806396E+001                                                     F               0         X-component position of node 52 (blade 2, node 23), m
        155     1.02065503597E+000                                                     F               0         Y-component position of node 52 (blade 2, node 23), m
        156     2.49472457886E+002                                                     F               0         Z-component position of node 52 (blade 2, node 23), m
        157     3.24149360657E+001                                                     F               0         X-component position of node 53 (blade 2, node 24), m
        158     1.40740668774E+000                                                     F               0         Y-component position of node 53 (blade 2, node 24), m
        159     2.53239303589E+002                                                     F               0         Z-component position of node 53 (blade 2, node 24), m
        160     3.32015876770E+001                                                     F               0         X-component position of node 54 (blade 2, node 25), m
        161     1.79415345192E+000                                                     F               0         Y-component position of node 54 (blade 2, node 25), m
        162     2.57006164551E+002                                                     F               0         Z-component position of node 54 (blade 2, node 25), m
        163     3.39883842468E+001                                                     F               0         X-component position of node 55 (blade 2, node 26), m
        164     2.18096804619E+000                                                     F               0         Y-component position of node 55 (blade 2, node 26), m
        165     2.60773681641E+002                                                     F               0         Z-component position of node 55 (blade 2, node 26), m
        166     3.47750396729E+001                                                     F               0         X-component position of node 56 (blade 2, node 27), m
        167     2.56771683693E+000                                                     F               0         Y-component position of node 56 (blade 2, node 27), m
        168     2.64540527344E+002                                                     F               0         Z-component position of node 56 (blade 2, node 27), m
        169     3.54419517517E+001                                                     F               0         X-component position of node 57 (blade 2, node 28), m
        170     2.89559674263E+000                                                     F               0         Y-component position of node 57 (blade 2, node 28), m
        171     2.67734008789E+002                                                     F               0         Z-component position of node 57 (blade 2, node 28), m
        172     1.03373594284E+001                                                     F               0         X-component position of node 58 (blade 3, node 1), m