
Linearized model: Predictions were generated on 13-Feb-2024 at 12:12:09 using OpenFAST, compiled as a 64-bit application using single precision at commit v3.5.1
 linked with  NWTC Subroutine Library; ElastoDyn; InflowWind; AeroDyn; ServoDyn; HydroDyn; MAP++ (<1.20.10>, <Oct-20-2023>)

Description from the FAST input file: CCT-9 Campign 4 model. Input files to be run with OpenFAST 3.5.0. GitHub branch from Lu Wang (https://github.com/luwang00/openfast/tree/dev) compiled on March 7, 2023.

Simulation information:
   Simulation time:                   777.5000 s
   Rotor Speed:                         0.7917 rad/s
   Azimuth:                             5.5945 rad
   Wind Speed:                         24.0000 m/s
   Number of continuous states:         0
   Number of discrete states:           0
   Number of constraint states:         0
   Number of inputs:                  303
   Number of outputs:                   1
   Jacobians included in this file?    No

Order of inputs:
     Column   Operating Point                                                   Rotating Frame? Derivative Order Description
   ---------- ---------------                                                   --------------- ---------------- -----------
          1    -1.08005075455E+001                                                     F               0         X-component position of node 1 (hub), m
          2     0.00000000000E+000                                                     F               0         Y-component position of node 1 (hub), m
          3     1.49740173340E+002                                                     F               0         Z-component position of node 1 (hub), m
          4     1.17079906464E+001                                                     F               0         X-component position of node 2 (blade 1, node 1), m
          5    -5.93637704849E+000                                                     F               0         Y-component position of node 2 (blade 1, node 1), m
          6     1.54126663208E+002                                                     F               0         Z-component position of node 2 (blade 1, node 1), m
          7     1.19283370972E+001                                                     F               0         X-component position of node 3 (blade 1, node 2), m
          8    -5.14942884445E+000                                                     F               0         Y-component position of node 3 (blade 1, node 2), m
          9     1.55182189941E+002                                                     F               0         Z-component position of node 3 (blade 1, node 2), m
         10     1.49246740341E+001                                                     F               0         X-component position of node 4 (blade 1, node 3), m
         11     5.55170440674E+000                                                     F               0         Y-component position of node 4 (blade 1, node 3), m
         12     1.69535507202E+002                                                     F               0         Z-component position of node 4 (blade 1, node 3), m
         13     1.55630626678E+001                                                     F               0         X-component position of node 5 (blade 1, node 4), m
         14     7.83164358139E+000                                                     F               0         Y-component position of node 5 (blade 1, node 4), m
         15     1.72593566895E+002                                                     F               0         Z-component position of node 5 (blade 1, node 4), m
         16     1.62015705109E+001                                                     F               0         X-component position of node 6 (blade 1, node 5), m
         17     1.01120176315E+001                                                     F               0         Y-component position of node 6 (blade 1, node 5), m
         18     1.75652206421E+002                                                     F               0         Z-component position of node 6 (blade 1, node 5), m
         19     1.68399600983E+001                                                     F               0         X-component position of node 7 (blade 1, node 6), m
         20     1.23919658661E+001                                                     F               0         Y-component position of node 7 (blade 1, node 6), m
         21     1.78710266113E+002                                                     F               0         Z-component position of node 7 (blade 1, node 6), m
         22     1.74783515930E+001                                                     F               0         X-component position of node 8 (blade 1, node 7), m
         23     1.46719226837E+001                                                     F               0         Y-component position of node 8 (blade 1, node 7), m
         24     1.81768356323E+002                                                     F               0         Z-component position of node 8 (blade 1, node 7), m
         25     1.81168594360E+001                                                     F               0         X-component position of node 9 (blade 1, node 8), m
         26     1.69522876740E+001                                                     F               0         Y-component position of node 9 (blade 1, node 8), m
         27     1.84826980591E+002                                                     F               0         Z-component position of node 9 (blade 1, node 8), m
         28     1.87552490234E+001                                                     F               0         X-component position of node 10 (blade 1, node 9), m
         29     1.92322444916E+001                                                     F               0         Y-component position of node 10 (blade 1, node 9), m
         30     1.87885055542E+002                                                     F               0         Z-component position of node 10 (blade 1, node 9), m
         31     1.93936405182E+001                                                     F               0         X-component position of node 11 (blade 1, node 10), m
         32     2.15121936798E+001                                                     F               0         Y-component position of node 11 (blade 1, node 10), m
         33     1.90943130493E+002                                                     F               0         Z-component position of node 11 (blade 1, node 10), m
         34     2.00320320129E+001                                                     F               0         X-component position of node 12 (blade 1, node 11), m
         35     2.37921504974E+001                                                     F               0         Y-component position of node 12 (blade 1, node 11), m
         36     1.94001220703E+002                                                     F               0         Z-component position of node 12 (blade 1, node 11), m
         37     2.06705379486E+001                                                     F               0         X-component position of node 13 (blade 1, node 12), m
         38     2.60725059509E+001                                                     F               0         Y-component position of node 13 (blade 1, node 12), m
         39     1.97059829712E+002                                                     F               0         Z-component position of node 13 (blade 1, node 12), m
         40     2.13089294434E+001                                                     F               0         X-component position of node 14 (blade 1, node 13), m
         41     2.83524627686E+001                                                     F               0         Y-component position of node 14 (blade 1, node 13), m
         42     2.00117919922E+002                                                     F               0         Z-component position of node 14 (blade 1, node 13), m
         43     2.19473190308E+001                                                     F               0         X-component position of node 15 (blade 1, node 14), m
         44     3.06324119568E+001                                                     F               0         Y-component position of node 15 (blade 1, node 14), m
         45     2.03175979614E+002                                                     F               0         Z-component position of node 15 (blade 1, node 14), m
         46     2.25858268738E+001                                                     F               0         X-component position of node 16 (blade 1, node 15), m
         47     3.29127807617E+001                                                     F               0         Y-component position of node 16 (blade 1, node 15), m
         48     2.06234619141E+002                                                     F               0         Z-component position of node 16 (blade 1, node 15), m
         49     2.32242183685E+001                                                     F               0         X-component position of node 17 (blade 1, node 16), m
         50     3.51927337646E+001                                                     F               0         Y-component position of node 17 (blade 1, node 16), m
         51     2.09292694092E+002                                                     F               0         Z-component position of node 17 (blade 1, node 16), m
         52     2.38626098633E+001                                                     F               0         X-component position of node 18 (blade 1, node 17), m
         53     3.74726943970E+001                                                     F               0         Y-component position of node 18 (blade 1, node 17), m
         54     2.12350769043E+002                                                     F               0         Z-component position of node 18 (blade 1, node 17), m
         55     2.45010013580E+001                                                     F               0         X-component position of node 19 (blade 1, node 18), m
         56     3.97526435852E+001                                                     F               0         Y-component position of node 19 (blade 1, node 18), m
         57     2.15408843994E+002                                                     F               0         Z-component position of node 19 (blade 1, node 18), m
         58     2.51395053864E+001                                                     F               0         X-component position of node 20 (blade 1, node 19), m
         59     4.20329971313E+001                                                     F               0         Y-component position of node 20 (blade 1, node 19), m
         60     2.18467468262E+002                                                     F               0         Z-component position of node 20 (blade 1, node 19), m
         61     2.57778968811E+001                                                     F               0         X-component position of node 21 (blade 1, node 20), m
         62     4.43129577637E+001                                                     F               0         Y-component position of node 21 (blade 1, node 20), m
         63     2.21525543213E+002                                                     F               0         Z-component position of node 21 (blade 1, node 20), m
         64     2.64162883759E+001                                                     F               0         X-component position of node 22 (blade 1, node 21), m
         65     4.65929107666E+001                                                     F               0         Y-component position of node 22 (blade 1, node 21), m
         66     2.24583618164E+002                                                     F               0         Z-component position of node 22 (blade 1, node 21), m
         67     2.70547943115E+001                                                     F               0         X-component position of node 23 (blade 1, node 22), m
         68     4.88732757568E+001                                                     F               0         Y-component position of node 23 (blade 1, node 22), m
         69     2.27642257690E+002                                                     F               0         Z-component position of node 23 (blade 1, node 22), m
         70     2.76931858063E+001                                                     F               0         X-component position of node 24 (blade 1, node 23), m
         71     5.11532325745E+001                                                     F               0         Y-component position of node 24 (blade 1, node 23), m
         72     2.30700332642E+002                                                     F               0         Z-component position of node 24 (blade 1, node 23), m
         73     2.83315773010E+001                                                     F               0         X-component position of node 25 (blade 1, node 24), m
         74     5.34331817627E+001                                                     F               0         Y-component position of node 25 (blade 1, node 24), m
         75     2.33758407593E+002                                                     F               0         Z-component position of node 25 (blade 1, node 24), m
         76     2.89699687958E+001                                                     F               0         X-component position of node 26 (blade 1, node 25), m
         77     5.57131347656E+001                                                     F               0         Y-component position of node 26 (blade 1, node 25), m
         78     2.36816482544E+002                                                     F               0         Z-component position of node 26 (blade 1, node 25), m
         79     2.96084747314E+001                                                     F               0         X-component position of node 27 (blade 1, node 26), m
         80     5.79934997559E+001                                                     F               0         Y-component position of node 27 (blade 1, node 26), m
         81     2.39875106812E+002                                                     F               0         Z-component position of node 27 (blade 1, node 26), m
         82     3.02468643188E+001                                                     F               0         X-component position of node 28 (blade 1, node 27), m
         83     6.02734489441E+001                                                     F               0         Y-component position of node 28 (blade 1, node 27), m
         84     2.42933181763E+002                                                     F               0         Z-component position of node 28 (blade 1, node 27), m
         85     3.07880840302E+001                                                     F               0         X-component position of node 29 (blade 1, node 28), m
         86     6.22063636780E+001                                                     F               0         Y-component position of node 29 (blade 1, node 28), m
         87     2.45525772095E+002                                                     F               0         Z-component position of node 29 (blade 1, node 28), m
         88     1.09129819870E+001                                                     F               0         X-component position of node 30 (blade 2, node 1), m
         89    -1.47106943130E+001                                                     F               0         Y-component position of node 30 (blade 2, node 1), m
         90     1.50324813843E+002                                                     F               0         Z-component position of node 30 (blade 2, node 1), m
         91     1.09417657852E+001                                                     F               0         X-component position of node 31 (blade 2, node 2), m
         92    -1.60379772186E+001                                                     F               0         Y-component position of node 31 (blade 2, node 2), m
         93     1.50464248657E+002                                                     F               0         Z-component position of node 31 (blade 2, node 2), m
         94     1.13331670761E+001                                                     F               0         X-component position of node 32 (blade 2, node 3), m
         95    -3.40868377686E+001                                                     F               0         Y-component position of node 32 (blade 2, node 3), m
         96     1.52360351562E+002                                                     F               0         Z-component position of node 32 (blade 2, node 3), m
         97     1.14165573120E+001                                                     F               0         X-component position of node 33 (blade 2, node 4), m
         98    -3.79322776794E+001                                                     F               0         Y-component position of node 33 (blade 2, node 4), m
         99     1.52764328003E+002                                                     F               0         Z-component position of node 33 (blade 2, node 4), m
        100     1.14999666214E+001                                                     F               0         X-component position of node 34 (blade 2, node 5), m
        101    -4.17784118652E+001                                                     F               0         Y-component position of node 34 (blade 2, node 5), m
        102     1.53168395996E+002                                                     F               0         Z-component position of node 34 (blade 2, node 5), m
        103     1.15833578110E+001                                                     F               0         X-component position of node 35 (blade 2, node 6), m
        104    -4.56238517761E+001                                                     F               0         Y-component position of node 35 (blade 2, node 6), m
        105     1.53572372437E+002                                                     F               0         Z-component position of node 35 (blade 2, node 6), m
        106     1.16667490005E+001                                                     F               0         X-component position of node 36 (blade 2, node 7), m
        107    -4.94692916870E+001                                                     F               0         Y-component position of node 36 (blade 2, node 7), m
        108     1.53976348877E+002                                                     F               0         Z-component position of node 36 (blade 2, node 7), m
        109     1.17501583099E+001                                                     F               0         X-component position of node 37 (blade 2, node 8), m
        110    -5.33154220581E+001                                                     F               0         Y-component position of node 37 (blade 2, node 8), m
        111     1.54380416870E+002                                                     F               0         Z-component position of node 37 (blade 2, node 8), m
        112     1.18335475922E+001                                                     F               0         X-component position of node 38 (blade 2, node 9), m
        113    -5.71608619690E+001                                                     F               0         Y-component position of node 38 (blade 2, node 9), m
        114     1.54784393311E+002                                                     F               0         Z-component position of node 38 (blade 2, node 9), m
        115     1.19169416428E+001                                                     F               0         X-component position of node 39 (blade 2, node 10), m
        116    -6.10062980652E+001                                                     F               0         Y-component position of node 39 (blade 2, node 10), m
        117     1.55188369751E+002                                                     F               0         Z-component position of node 39 (blade 2, node 10), m
        118     1.20003328323E+001                                                     F               0         X-component position of node 40 (blade 2, node 11), m
        119    -6.48517379761E+001                                                     F               0         Y-component position of node 40 (blade 2, node 11), m
        120     1.55592361450E+002                                                     F               0         Z-component position of node 40 (blade 2, node 11), m
        121     1.20837421417E+001                                                     F               0         X-component position of node 41 (blade 2, node 12), m
        122    -6.86978759766E+001                                                     F               0         Y-component position of node 41 (blade 2, node 12), m
        123     1.55996414185E+002                                                     F               0         Z-component position of node 41 (blade 2, node 12), m
        124     1.21671314240E+001                                                     F               0         X-component position of node 42 (blade 2, node 13), m
        125    -7.25433120728E+001                                                     F               0         Y-component position of node 42 (blade 2, node 13), m
        126     1.56400390625E+002                                                     F               0         Z-component position of node 42 (blade 2, node 13), m
        127     1.22505254745E+001                                                     F               0         X-component position of node 43 (blade 2, node 14), m
        128    -7.63887481689E+001                                                     F               0         Y-component position of node 43 (blade 2, node 14), m
        129     1.56804382324E+002                                                     F               0         Z-component position of node 43 (blade 2, node 14), m
        130     1.23339309692E+001                                                     F               0         X-component position of node 44 (blade 2, node 15), m
        131    -8.02348861694E+001                                                     F               0         Y-component position of node 44 (blade 2, node 15), m
        132     1.57208435059E+002                                                     F               0         Z-component position of node 44 (blade 2, node 15), m
        133     1.24173202515E+001                                                     F               0         X-component position of node 45 (blade 2, node 16), m
        134    -8.40803298950E+001                                                     F               0         Y-component position of node 45 (blade 2, node 16), m
        135     1.57612411499E+002                                                     F               0         Z-component position of node 45 (blade 2, node 16), m
        136     1.25007123947E+001                                                     F               0         X-component position of node 46 (blade 2, node 17), m
        137    -8.79257659912E+001                                                     F               0         Y-component position of node 46 (blade 2, node 17), m
        138     1.58016387939E+002                                                     F               0         Z-component position of node 46 (blade 2, node 17), m
        139     1.25841035843E+001                                                     F               0         X-component position of node 47 (blade 2, node 18), m
        140    -9.17712020874E+001                                                     F               0         Y-component position of node 47 (blade 2, node 18), m
        141     1.58420364380E+002                                                     F               0         Z-component position of node 47 (blade 2, node 18), m
        142     1.26675138474E+001                                                     F               0         X-component position of node 48 (blade 2, node 19), m
        143    -9.56173324585E+001                                                     F               0         Y-component position of node 48 (blade 2, node 19), m
        144     1.58824432373E+002                                                     F               0         Z-component position of node 48 (blade 2, node 19), m
        145     1.27509040833E+001                                                     F               0         X-component position of node 49 (blade 2, node 20), m
        146    -9.94627761841E+001                                                     F               0         Y-component position of node 49 (blade 2, node 20), m
        147     1.59228408813E+002                                                     F               0         Z-component position of node 49 (blade 2, node 20), m
        148     1.28342981339E+001                                                     F               0         X-component position of node 50 (blade 2, node 21), m
        149    -1.03308219910E+002                                                     F               0         Y-component position of node 50 (blade 2, node 21), m
        150     1.59632400513E+002                                                     F               0         Z-component position of node 50 (blade 2, node 21), m
        151     1.29177036285E+001                                                     F               0         X-component position of node 51 (blade 2, node 22), m
        152    -1.07154350281E+002                                                     F               0         Y-component position of node 51 (blade 2, node 22), m
        153     1.60036453247E+002                                                     F               0         Z-component position of node 51 (blade 2, node 22), m
        154     1.30010929108E+001                                                     F               0         X-component position of node 52 (blade 2, node 23), m
        155    -1.10999794006E+002                                                     F               0         Y-component position of node 52 (blade 2, node 23), m
        156     1.60440414429E+002                                                     F               0         Z-component position of node 52 (blade 2, node 23), m
        157     1.30844860077E+001                                                     F               0         X-component position of node 53 (blade 2, node 24), m
        158    -1.14845230103E+002                                                     F               0         Y-component position of node 53 (blade 2, node 24), m
        159     1.60844406128E+002                                                     F               0         Z-component position of node 53 (blade 2, node 24), m
        160     1.31678771973E+001                                                     F               0         X-component position of node 54 (blade 2, node 25), m
        161    -1.18690666199E+002                                                     F               0         Y-component position of node 54 (blade 2, node 25), m
        162     1.61248382568E+002                                                     F               0         Z-component position of node 54 (blade 2, node 25), m
        163     1.32512817383E+001                                                     F               0         X-component position of node 55 (blade 2, node 26), m
        164    -1.22536811829E+002                                                     F               0         Y-component position of node 55 (blade 2, node 26), m
        165     1.61652435303E+002                                                     F               0         Z-component position of node 55 (blade 2, node 26), m
        166     1.33346748352E+001                                                     F               0         X-component position of node 56 (blade 2, node 27), m
        167    -1.26382247925E+002                                                     F               0         Y-component position of node 56 (blade 2, node 27), m
        168     1.62056427002E+002                                                     F               0         Z-component position of node 56 (blade 2, node 27), m
        169     1.34053745270E+001                                                     F               0         X-component position of node 57 (blade 2, node 28), m
        170    -1.29642349243E+002                                                     F               0         Y-component position of node 57 (blade 2, node 28), m
        171     1.62398910522E+002                                                     F               0         Z-component position of node 57 (blade 2, node 28), m
        172     9.75960922241E+000                                                     F               0         X-component position of node 58 (blade 3, node 1), m