
Linearized model: Predictions were generated on 12-Jan-2024 at 09:28:28 using OpenFAST, compiled as a 64-bit application using single precision at commit v3.5.1
 linked with  NWTC Subroutine Library; ElastoDyn; InflowWind; AeroDyn; ServoDyn; HydroDyn; MAP++ (<1.20.10>, <Oct-20-2023>)

Description from the FAST input file: CCT-9 Campign 4 model. Input files to be run with OpenFAST 3.5.0. GitHub branch from Lu Wang (https://github.com/luwang00/openfast/tree/dev) compiled on March 7, 2023.

Simulation information:
   Simulation time:                   504.4500 s
   Rotor Speed:                         0.8772 rad/s
   Azimuth:                             1.4759 rad
   Wind Speed:                         10.0000 m/s
   Number of continuous states:        22
   Number of discrete states:           0
   Number of constraint states:         0
   Number of inputs:                 1890
   Number of outputs:                  38
   Jacobians included in this file?    No

Order of continuous states:
   Row/Column Operating Point                     Rotating Frame? Derivative Order Description
   ---------- ---------------                     --------------- ---------------- -----------
          1    8.836E+00                                 F               2         Platform horizontal surge translation DOF (internal DOF index = DOF_Sg), m
          2   -3.618E-01                                 F               2         Platform horizontal sway translation DOF (internal DOF index = DOF_Sw), m
          3   -1.748E-01                                 F               2         Platform vertical heave translation DOF (internal DOF index = DOF_Hv), m
          4    4.805E-02                                 F               2         Platform roll tilt rotation DOF (internal DOF index = DOF_R), rad
          5    1.188E-01                                 F               2         Platform pitch tilt rotation DOF (internal DOF index = DOF_P), rad
          6    7.100E-03                                 F               2         Platform yaw rotation DOF (internal DOF index = DOF_Y), rad
          7    7.529E-01                                 F               2         1st tower fore-aft bending mode DOF (internal DOF index = DOF_TFA1), m
          8    1.952E-01                                 F               2         1st tower side-to-side bending mode DOF (internal DOF index = DOF_TSS1), m
          9    1.523E-03                                 F               2         2nd tower fore-aft bending mode DOF (internal DOF index = DOF_TFA2), m
         10    8.422E-05                                 F               2         2nd tower side-to-side bending mode DOF (internal DOF index = DOF_TSS2), m
         11    6.188E+00                                 F               2         Variable speed generator DOF (internal DOF index = DOF_GeAz), rad
         12   -4.320E-03                                 F               2         First time derivative of Platform horizontal surge translation DOF (internal DOF index = DOF_Sg), m/s
         13    1.948E-03                                 F               2         First time derivative of Platform horizontal sway translation DOF (internal DOF index = DOF_Sw), m/s
         14    3.653E-03                                 F               2         First time derivative of Platform vertical heave translation DOF (internal DOF index = DOF_Hv), m/s
         15   -6.015E-05                                 F               2         First time derivative of Platform roll tilt rotation DOF (internal DOF index = DOF_R), rad/s
         16   -1.822E-05                                 F               2         First time derivative of Platform pitch tilt rotation DOF (internal DOF index = DOF_P), rad/s
         17    7.700E-05                                 F               2         First time derivative of Platform yaw rotation DOF (internal DOF index = DOF_Y), rad/s
         18    3.283E-04                                 F               2         First time derivative of 1st tower fore-aft bending mode DOF (internal DOF index = DOF_TFA1), m/s
         19   -3.411E-03                                 F               2         First time derivative of 1st tower side-to-side bending mode DOF (internal DOF index = DOF_TSS1), m/s
         20   -7.691E-07                                 F               2         First time derivative of 2nd tower fore-aft bending mode DOF (internal DOF index = DOF_TFA2), m/s
         21   -6.899E-07                                 F               2         First time derivative of 2nd tower side-to-side bending mode DOF (internal DOF index = DOF_TSS2), m/s
         22    8.772E-01                                 F               2         First time derivative of Variable speed generator DOF (internal DOF index = DOF_GeAz), rad/s

Order of continuous state derivatives:
   Row/Column Operating Point                     Rotating Frame? Derivative Order Description
   ---------- ---------------                     --------------- ---------------- -----------
          1   -4.320E-03                                 F               2         First time derivative of Platform horizontal surge translation DOF (internal DOF index = DOF_Sg), m/s
          2    1.948E-03                                 F               2         First time derivative of Platform horizontal sway translation DOF (internal DOF index = DOF_Sw), m/s
          3    3.653E-03                                 F               2         First time derivative of Platform vertical heave translation DOF (internal DOF index = DOF_Hv), m/s
          4   -6.015E-05                                 F               2         First time derivative of Platform roll tilt rotation DOF (internal DOF index = DOF_R), rad/s
          5   -1.822E-05                                 F               2         First time derivative of Platform pitch tilt rotation DOF (internal DOF index = DOF_P), rad/s
          6    7.700E-05                                 F               2         First time derivative of Platform yaw rotation DOF (internal DOF index = DOF_Y), rad/s
          7    3.283E-04                                 F               2         First time derivative of 1st tower fore-aft bending mode DOF (internal DOF index = DOF_TFA1), m/s
          8   -3.411E-03                                 F               2         First time derivative of 1st tower side-to-side bending mode DOF (internal DOF index = DOF_TSS1), m/s
          9   -7.691E-07                                 F               2         First time derivative of 2nd tower fore-aft bending mode DOF (internal DOF index = DOF_TFA2), m/s
         10   -6.899E-07                                 F               2         First time derivative of 2nd tower side-to-side bending mode DOF (internal DOF index = DOF_TSS2), m/s
         11    8.772E-01                                 F               2         First time derivative of Variable speed generator DOF (internal DOF index = DOF_GeAz), rad/s
         12   -6.187E-04                                 F               2         First time derivative of First time derivative of Platform horizontal surge translation DOF (internal DOF index = DOF_Sg), m/s/s
         13   -4.204E-04                                 F               2         First time derivative of First time derivative of Platform horizontal sway translation DOF (internal DOF index = DOF_Sw), m/s/s
         14    1.208E-03                                 F               2         First time derivative of First time derivative of Platform vertical heave translation DOF (internal DOF index = DOF_Hv), m/s/s
         15   -1.207E-04                                 F               2         First time derivative of First time derivative of Platform roll tilt rotation DOF (internal DOF index = DOF_R), rad/s/s
         16   -2.577E-05                                 F               2         First time derivative of First time derivative of Platform pitch tilt rotation DOF (internal DOF index = DOF_P), rad/s/s
         17    2.769E-05                                 F               2         First time derivative of First time derivative of Platform yaw rotation DOF (internal DOF index = DOF_Y), rad/s/s
         18    8.287E-03                                 F               2         First time derivative of First time derivative of 1st tower fore-aft bending mode DOF (internal DOF index = DOF_TFA1), m/s/s
         19   -1.401E-03                                 F               2         First time derivative of First time derivative of 1st tower side-to-side bending mode DOF (internal DOF index = DOF_TSS1), m/s/s
         20    6.926E-06                                 F               2         First time derivative of First time derivative of 2nd tower fore-aft bending mode DOF (internal DOF index = DOF_TFA2), m/s/s
         21   -1.809E-06                                 F               2         First time derivative of First time derivative of 2nd tower side-to-side bending mode DOF (internal DOF index = DOF_TSS2), m/s/s
         22    2.664E-04                                 F               2         First time derivative of First time derivative of Variable speed generator DOF (internal DOF index = DOF_GeAz), rad/s/s

Order of inputs:
     Column   Operating Point                     Rotating Frame? Derivative Order Description
   ---------- ---------------                     --------------- ---------------- -----------
          1    1.094E+02                                 F               0         Blade 1 X force, node 1, N
          2    7.744E+00                                 F               0         Blade 1 Y force, node 1, N
          3    1.174E+02                                 F               0         Blade 1 Z force, node 1, N
          4    3.745E+02                                 F               0         Blade 1 X force, node 2, N
          5    1.617E+01                                 F               0         Blade 1 Y force, node 2, N
          6    1.556E+02                                 F               0         Blade 1 Z force, node 2, N
          7    4.338E+02                                 F               0         Blade 1 X force, node 3, N
          8    1.428E+01                                 F               0         Blade 1 Y force, node 3, N
          9    7.421E+01                                 F               0         Blade 1 Z force, node 3, N
         10    5.340E+02                                 F               0         Blade 1 X force, node 4, N
         11    1.438E+01                                 F               0         Blade 1 Y force, node 4, N
         12    1.533E+01                                 F               0         Blade 1 Z force, node 4, N
         13    6.343E+02                                 F               0         Blade 1 X force, node 5, N
         14    1.449E+01                                 F               0         Blade 1 Y force, node 5, N
         15   -4.356E+01                                 F               0         Blade 1 Z force, node 5, N
         16    7.345E+02                                 F               0         Blade 1 X force, node 6, N
         17    1.459E+01                                 F               0         Blade 1 Y force, node 6, N
         18   -1.024E+02                                 F               0         Blade 1 Z force, node 6, N
         19    8.347E+02                                 F               0         Blade 1 X force, node 7, N
         20    1.470E+01                                 F               0         Blade 1 Y force, node 7, N
         21   -1.613E+02                                 F               0         Blade 1 Z force, node 7, N
         22    9.349E+02                                 F               0         Blade 1 X force, node 8, N
         23    1.480E+01                                 F               0         Blade 1 Y force, node 8, N
         24   -2.202E+02                                 F               0         Blade 1 Z force, node 8, N
         25    1.035E+03                                 F               0         Blade 1 X force, node 9, N
         26    1.491E+01                                 F               0         Blade 1 Y force, node 9, N
         27   -2.791E+02                                 F               0         Blade 1 Z force, node 9, N
         28    1.135E+03                                 F               0         Blade 1 X force, node 10, N
         29    1.502E+01                                 F               0         Blade 1 Y force, node 10, N
         30   -3.380E+02                                 F               0         Blade 1 Z force, node 10, N
         31    1.236E+03                                 F               0         Blade 1 X force, node 11, N
         32    1.512E+01                                 F               0         Blade 1 Y force, node 11, N
         33   -3.969E+02                                 F               0         Blade 1 Z force, node 11, N
         34    1.336E+03                                 F               0         Blade 1 X force, node 12, N
         35    1.523E+01                                 F               0         Blade 1 Y force, node 12, N
         36   -4.558E+02                                 F               0         Blade 1 Z force, node 12, N
         37    1.436E+03                                 F               0         Blade 1 X force, node 13, N
         38    1.533E+01                                 F               0         Blade 1 Y force, node 13, N
         39   -5.147E+02                                 F               0         Blade 1 Z force, node 13, N
         40    1.536E+03                                 F               0         Blade 1 X force, node 14, N
         41    1.544E+01                                 F               0         Blade 1 Y force, node 14, N
         42   -5.735E+02                                 F               0         Blade 1 Z force, node 14, N
         43    1.636E+03                                 F               0         Blade 1 X force, node 15, N
         44    1.554E+01                                 F               0         Blade 1 Y force, node 15, N
         45   -6.324E+02                                 F               0         Blade 1 Z force, node 15, N
         46    1.737E+03                                 F               0         Blade 1 X force, node 16, N
         47    1.565E+01                                 F               0         Blade 1 Y force, node 16, N
         48   -6.913E+02                                 F               0         Blade 1 Z force, node 16, N
         49    2.133E+03                                 F               0         Blade 1 X force, node 17, N
         50    1.837E+01                                 F               0         Blade 1 Y force, node 17, N
         51   -8.694E+02                                 F               0         Blade 1 Z force, node 17, N
         52    1.652E+03                                 F               0         Blade 1 X force, node 18, N
         53    1.454E+01                                 F               0         Blade 1 Y force, node 18, N
         54   -6.657E+02                                 F               0         Blade 1 Z force, node 18, N
         55    2.062E+03                                 F               0         Blade 1 X force, node 19, N
         56    1.890E+01                                 F               0         Blade 1 Y force, node 19, N
         57   -8.134E+02                                 F               0         Blade 1 Z force, node 19, N
         58    1.786E+03                                 F               0         Blade 1 X force, node 20, N
         59    1.694E+01                                 F               0         Blade 1 Y force, node 20, N
         60   -6.907E+02                                 F               0         Blade 1 Z force, node 20, N
         61    2.683E+03                                 F               0         Blade 1 X force, node 21, N
         62    2.642E+01                                 F               0         Blade 1 Y force, node 21, N
         63   -1.014E+03                                 F               0         Blade 1 Z force, node 21, N
         64    2.406E+03                                 F               0         Blade 1 X force, node 22, N
         65    2.457E+01                                 F               0         Blade 1 Y force, node 22, N
         66   -8.892E+02                                 F               0         Blade 1 Z force, node 22, N
         67    2.506E+03                                 F               0         Blade 1 X force, node 23, N
         68    2.635E+01                                 F               0         Blade 1 Y force, node 23, N
         69   -9.075E+02                                 F               0         Blade 1 Z force, node 23, N
         70    2.650E+03                                 F               0         Blade 1 X force, node 24, N
         71    2.864E+01                                 F               0         Blade 1 Y force, node 24, N
         72   -9.417E+02                                 F               0         Blade 1 Z force, node 24, N
         73    2.748E+03                                 F               0         Blade 1 X force, node 25, N
         74    3.048E+01                                 F               0         Blade 1 Y force, node 25, N
         75   -9.581E+02                                 F               0         Blade 1 Z force, node 25, N
         76    2.861E+03                                 F               0         Blade 1 X force, node 26, N
         77    3.248E+01                                 F               0         Blade 1 Y force, node 26, N
         78   -9.795E+02                                 F               0         Blade 1 Z force, node 26, N
         79    3.466E+03                                 F               0         Blade 1 X force, node 27, N
         80    4.025E+01                                 F               0         Blade 1 Y force, node 27, N
         81   -1.165E+03                                 F               0         Blade 1 Z force, node 27, N
         82    2.596E+03                                 F               0         Blade 1 X force, node 28, N
         83    3.078E+01                                 F               0         Blade 1 Y force, node 28, N
         84   -8.572E+02                                 F               0         Blade 1 Z force, node 28, N
         85    3.200E+03                                 F               0         Blade 1 X force, node 29, N
         86    3.859E+01                                 F               0         Blade 1 Y force, node 29, N
         87   -1.042E+03                                 F               0         Blade 1 Z force, node 29, N
         88    2.743E+03                                 F               0         Blade 1 X force, node 30, N
         89    3.359E+01                                 F               0         Blade 1 Y force, node 30, N
         90   -8.806E+02                                 F               0         Blade 1 Z force, node 30, N
         91    3.996E+03                                 F               0         Blade 1 X force, node 31, N
         92    4.977E+01                                 F               0         Blade 1 Y force, node 31, N
         93   -1.263E+03                                 F               0         Blade 1 Z force, node 31, N
         94    3.537E+03                                 F               0         Blade 1 X force, node 32, N
         95    4.479E+01                                 F               0         Blade 1 Y force, node 32, N
         96   -1.100E+03                                 F               0         Blade 1 Z force, node 32, N
         97    3.648E+03                                 F               0         Blade 1 X force, node 33, N
         98    4.687E+01                                 F               0         Blade 1 Y force, node 33, N
         99   -1.119E+03                                 F               0         Blade 1 Z force, node 33, N
        100    3.761E+03                                 F               0         Blade 1 X force, node 34, N
        101    4.896E+01                                 F               0         Blade 1 Y force, node 34, N
        102   -1.138E+03                                 F               0         Blade 1 Z force, node 34, N
        103    3.872E+03                                 F               0         Blade 1 X force, node 35, N
        104    5.107E+01                                 F               0         Blade 1 Y force, node 35, N
        105   -1.156E+03                                 F               0         Blade 1 Z force, node 35, N
        106    3.983E+03                                 F               0         Blade 1 X force, node 36, N
        107    5.316E+01                                 F               0         Blade 1 Y force, node 36, N
        108   -1.174E+03                                 F               0         Blade 1 Z force, node 36, N
        109    4.792E+03                                 F               0         Blade 1 X force, node 37, N
        110    6.473E+01                                 F               0         Blade 1 Y force, node 37, N
        111   -1.395E+03                                 F               0         Blade 1 Z force, node 37, N
        112    3.509E+03                                 F               0         Blade 1 X force, node 38, N
        113    4.792E+01                                 F               0         Blade 1 Y force, node 38, N
        114   -1.008E+03                                 F               0         Blade 1 Z force, node 38, N
        115    4.318E+03                                 F               0         Blade 1 X force, node 39, N
        116    5.951E+01                                 F               0         Blade 1 Y force, node 39, N
        117   -1.228E+03                                 F               0         Blade 1 Z force, node 39, N
        118    3.697E+03                                 F               0         Blade 1 X force, node 40, N
        119    5.139E+01                                 F               0         Blade 1 Y force, node 40, N
        120   -1.041E+03                                 F               0         Blade 1 Z force, node 40, N
        121    5.274E+03                                 F               0         Blade 1 X force, node 41, N
        122    7.402E+01                                 F               0         Blade 1 Y force, node 41, N
        123   -1.469E+03                                 F               0         Blade 1 Z force, node 41, N
        124    4.651E+03                                 F               0         Blade 1 X force, node 42, N
        125    6.589E+01                                 F               0         Blade 1 Y force, node 42, N
        126   -1.280E+03                                 F               0         Blade 1 Z force, node 42, N
        127    4.761E+03                                 F               0         Blade 1 X force, node 43, N
        128    6.801E+01                                 F               0         Blade 1 Y force, node 43, N
        129   -1.297E+03                                 F               0         Blade 1 Z force, node 43, N
        130    4.896E+03                                 F               0         Blade 1 X force, node 44, N
        131    7.051E+01                                 F               0         Blade 1 Y force, node 44, N
        132   -1.321E+03                                 F               0         Blade 1 Z force, node 44, N
        133    4.954E+03                                 F               0         Blade 1 X force, node 45, N
        134    7.189E+01                                 F               0         Blade 1 Y force, node 45, N
        135   -1.323E+03                                 F               0         Blade 1 Z force, node 45, N
        136    5.090E+03                                 F               0         Blade 1 X force, node 46, N
        137    7.440E+01                                 F               0         Blade 1 Y force, node 46, N
        138   -1.347E+03                                 F               0         Blade 1 Z force, node 46, N
        139    6.113E+03                                 F               0         Blade 1 X force, node 47, N
        140    9.001E+01                                 F               0         Blade 1 Y force, node 47, N
        141   -1.602E+03                                 F               0         Blade 1 Z force, node 47, N
        142    4.395E+03                                 F               0         Blade 1 X force, node 48, N
        143    6.517E+01                                 F               0         Blade 1 Y force, node 48, N
        144   -1.141E+03                                 F               0         Blade 1 Z force, node 48, N
        145    5.417E+03                                 F               0         Blade 1 X force, node 49, N
        146    8.079E+01                                 F               0         Blade 1 Y force, node 49, N
        147   -1.395E+03                                 F               0         Blade 1 Z force, node 49, N
        148    4.646E+03                                 F               0         Blade 1 X force, node 50, N
        149    6.967E+01                                 F               0         Blade 1 Y force, node 50, N
        150   -1.187E+03                                 F               0         Blade 1 Z force, node 50, N
        151    6.515E+03                                 F               0         Blade 1 X force, node 51, N
        152    9.831E+01                                 F               0         Blade 1 Y force, node 51, N
        153   -1.651E+03                                 F               0         Blade 1 Z force, node 51, N
        154    5.745E+03                                 F               0         Blade 1 X force, node 52, N
        155    8.721E+01                                 F               0         Blade 1 Y force, node 52, N
        156   -1.443E+03                                 F               0         Blade 1 Z force, node 52, N
        157    5.855E+03                                 F               0         Blade 1 X force, node 53, N
        158    8.936E+01                                 F               0         Blade 1 Y force, node 53, N
        159   -1.459E+03                                 F               0         Blade 1 Z force, node 53, N
        160    6.031E+03                                 F               0         Blade 1 X force, node 54, N
        161    9.252E+01                                 F               0         Blade 1 Y force, node 54, N
        162   -1.492E+03                                 F               0         Blade 1 Z force, node 54, N
        163    6.009E+03                                 F               0         Blade 1 X force, node 55, N
        164    9.265E+01                                 F               0         Blade 1 Y force, node 55, N
        165   -1.475E+03                                 F               0         Blade 1 Z force, node 55, N
        166    6.183E+03                                 F               0         Blade 1 X force, node 56, N
        167    9.581E+01                                 F               0         Blade 1 Y force, node 56, N
        168   -1.507E+03                                 F               0         Blade 1 Z force, node 56, N
        169    7.432E+03                                 F               0         Blade 1 X force, node 57, N
        170    1.157E+02                                 F               0         Blade 1 Y force, node 57, N
        171   -1.797E+03                                 F               0         Blade 1 Z force, node 57, N
        172    5.261E+03                                 F               0         Blade 1 X force, node 58, N
        173    8.233E+01                                 F               0         Blade 1 Y force, node 58, N
        174   -1.263E+03                                 F               0         Blade 1 Z force, node 58, N
        175    6.510E+03                                 F               0         Blade 1 X force, node 59, N
        176    1.023E+02                                 F               0         Blade 1 Y force, node 59, N
        177   -1.553E+03                                 F               0         Blade 1 Z force, node 59, N
        178    5.605E+03                                 F               0         Blade 1 X force, node 60, N
        179    8.838E+01                                 F               0         Blade 1 Y force, node 60, N
        180   -1.329E+03                                 F               0         Blade 1 Z force, node 60, N
        181    7.741E+03                                 F               0         Blade 1 X force, node 61, N
        182    1.226E+02                                 F               0         Blade 1 Y force, node 61, N
        183   -1.823E+03                                 F               0         Blade 1 Z force, node 61, N
        184    6.833E+03                                 F               0         Blade 1 X force, node 62, N