
Linearized model: Predictions were generated on 13-Feb-2024 at 12:12:09 using OpenFAST, compiled as a 64-bit application using single precision at commit v3.5.1
 linked with  NWTC Subroutine Library; ElastoDyn; InflowWind; AeroDyn; ServoDyn; HydroDyn; MAP++ (<1.20.10>, <Oct-20-2023>)

Description from the FAST input file: CCT-9 Campign 4 model. Input files to be run with OpenFAST 3.5.0. GitHub branch from Lu Wang (https://github.com/luwang00/openfast/tree/dev) compiled on March 7, 2023.

Simulation information:
   Simulation time:                   778.1500 s
   Rotor Speed:                         0.7913 rad/s
   Azimuth:                             6.1089 rad
   Wind Speed:                         24.0000 m/s
   Number of continuous states:        22
   Number of discrete states:           0
   Number of constraint states:         0
   Number of inputs:                 1890
   Number of outputs:                  25
   Jacobians included in this file?    No

Order of continuous states:
   Row/Column Operating Point                                                   Rotating Frame? Derivative Order Description
   ---------- ---------------                                                   --------------- ---------------- -----------
          1     6.82715177536E+000                                                     F               2         Platform horizontal surge translation DOF (internal DOF index = DOF_Sg), m
          2    -8.19390654564E-001                                                     F               2         Platform horizontal sway translation DOF (internal DOF index = DOF_Sw), m
          3    -1.22664332390E-001                                                     F               2         Platform vertical heave translation DOF (internal DOF index = DOF_Hv), m
          4     5.42602278292E-002                                                     F               2         Platform roll tilt rotation DOF (internal DOF index = DOF_R), rad
          5     9.51756983995E-002                                                     F               2         Platform pitch tilt rotation DOF (internal DOF index = DOF_P), rad
          6    -9.25636012107E-003                                                     F               2         Platform yaw rotation DOF (internal DOF index = DOF_Y), rad
          7     5.45755624771E-001                                                     F               2         1st tower fore-aft bending mode DOF (internal DOF index = DOF_TFA1), m
          8     2.75286763906E-001                                                     F               2         1st tower side-to-side bending mode DOF (internal DOF index = DOF_TSS1), m
          9     1.47789204493E-003                                                     F               2         2nd tower fore-aft bending mode DOF (internal DOF index = DOF_TFA2), m
         10    -2.98414437566E-004                                                     F               2         2nd tower side-to-side bending mode DOF (internal DOF index = DOF_TSS2), m
         11     4.53814935684E+000                                                     F               2         Variable speed generator DOF (internal DOF index = DOF_GeAz), rad
         12    -2.22140038386E-003                                                     F               2         First time derivative of Platform horizontal surge translation DOF (internal DOF index = DOF_Sg), m/s
         13     3.45974834636E-003                                                     F               2         First time derivative of Platform horizontal sway translation DOF (internal DOF index = DOF_Sw), m/s
         14    -4.66322991997E-003                                                     F               2         First time derivative of Platform vertical heave translation DOF (internal DOF index = DOF_Hv), m/s
         15    -1.26861050376E-004                                                     F               2         First time derivative of Platform roll tilt rotation DOF (internal DOF index = DOF_R), rad/s
         16    -2.57337029325E-004                                                     F               2         First time derivative of Platform pitch tilt rotation DOF (internal DOF index = DOF_P), rad/s
         17    -5.36324932909E-007                                                     F               2         First time derivative of Platform yaw rotation DOF (internal DOF index = DOF_Y), rad/s
         18     5.50184026361E-002                                                     F               2         First time derivative of 1st tower fore-aft bending mode DOF (internal DOF index = DOF_TFA1), m/s
         19     9.97308082879E-003                                                     F               2         First time derivative of 1st tower side-to-side bending mode DOF (internal DOF index = DOF_TSS1), m/s
         20     1.47052696775E-005                                                     F               2         First time derivative of 2nd tower fore-aft bending mode DOF (internal DOF index = DOF_TFA2), m/s
         21     1.44282257679E-005                                                     F               2         First time derivative of 2nd tower side-to-side bending mode DOF (internal DOF index = DOF_TSS2), m/s
         22     7.91317224503E-001                                                     F               2         First time derivative of Variable speed generator DOF (internal DOF index = DOF_GeAz), rad/s

Order of continuous state derivatives:
   Row/Column Operating Point                                                   Rotating Frame? Derivative Order Description
   ---------- ---------------                                                   --------------- ---------------- -----------
          1    -2.22140038386E-003                                                     F               2         First time derivative of Platform horizontal surge translation DOF (internal DOF index = DOF_Sg), m/s
          2     3.45974834636E-003                                                     F               2         First time derivative of Platform horizontal sway translation DOF (internal DOF index = DOF_Sw), m/s
          3    -4.66322991997E-003                                                     F               2         First time derivative of Platform vertical heave translation DOF (internal DOF index = DOF_Hv), m/s
          4    -1.26861050376E-004                                                     F               2         First time derivative of Platform roll tilt rotation DOF (internal DOF index = DOF_R), rad/s
          5    -2.57337029325E-004                                                     F               2         First time derivative of Platform pitch tilt rotation DOF (internal DOF index = DOF_P), rad/s
          6    -5.36324932909E-007                                                     F               2         First time derivative of Platform yaw rotation DOF (internal DOF index = DOF_Y), rad/s
          7     5.50184026361E-002                                                     F               2         First time derivative of 1st tower fore-aft bending mode DOF (internal DOF index = DOF_TFA1), m/s
          8     9.97308082879E-003                                                     F               2         First time derivative of 1st tower side-to-side bending mode DOF (internal DOF index = DOF_TSS1), m/s
          9     1.47052696775E-005                                                     F               2         First time derivative of 2nd tower fore-aft bending mode DOF (internal DOF index = DOF_TFA2), m/s
         10     1.44282257679E-005                                                     F               2         First time derivative of 2nd tower side-to-side bending mode DOF (internal DOF index = DOF_TSS2), m/s
         11     7.91317224503E-001                                                     F               2         First time derivative of Variable speed generator DOF (internal DOF index = DOF_GeAz), rad/s
         12    -1.13921810407E-003                                                     F               2         First time derivative of First time derivative of Platform horizontal surge translation DOF (internal DOF index = DOF_Sg), m/s/s
         13    -3.45376110636E-003                                                     F               2         First time derivative of First time derivative of Platform horizontal sway translation DOF (internal DOF index = DOF_Sw), m/s/s
         14     5.66597387660E-004                                                     F               2         First time derivative of First time derivative of Platform vertical heave translation DOF (internal DOF index = DOF_Hv), m/s/s
         15     2.12212078623E-004                                                     F               2         First time derivative of First time derivative of Platform roll tilt rotation DOF (internal DOF index = DOF_R), rad/s/s
         16    -8.28327320050E-005                                                     F               2         First time derivative of First time derivative of Platform pitch tilt rotation DOF (internal DOF index = DOF_P), rad/s/s
         17    -1.29823238240E-005                                                     F               2         First time derivative of First time derivative of Platform yaw rotation DOF (internal DOF index = DOF_Y), rad/s/s
         18     1.70224532485E-002                                                     F               2         First time derivative of First time derivative of 1st tower fore-aft bending mode DOF (internal DOF index = DOF_TFA1), m/s/s
         19    -5.43467365205E-002                                                     F               2         First time derivative of First time derivative of 1st tower side-to-side bending mode DOF (internal DOF index = DOF_TSS1), m/s/s
         20     1.93104939535E-003                                                     F               2         First time derivative of First time derivative of 2nd tower fore-aft bending mode DOF (internal DOF index = DOF_TFA2), m/s/s
         21    -4.04900019930E-005                                                     F               2         First time derivative of First time derivative of 2nd tower side-to-side bending mode DOF (internal DOF index = DOF_TSS2), m/s/s
         22    -8.00385987532E-006                                                     F               2         First time derivative of First time derivative of Variable speed generator DOF (internal DOF index = DOF_GeAz), rad/s/s

Order of inputs:
     Column   Operating Point                                                   Rotating Frame? Derivative Order Description
   ---------- ---------------                                                   --------------- ---------------- -----------
          1     3.61670593262E+002                                                     F               0         Blade 1 X force, node 1, N
          2     9.68393020630E+001                                                     F               0         Blade 1 Y force, node 1, N
          3    -8.70376510620E+001                                                     F               0         Blade 1 Z force, node 1, N
          4     1.39548535156E+003                                                     F               0         Blade 1 X force, node 2, N
          5     1.75809265137E+002                                                     F               0         Blade 1 Y force, node 2, N
          6    -3.12286743164E+002                                                     F               0         Blade 1 Z force, node 2, N
          7     1.50486584473E+003                                                     F               0         Blade 1 X force, node 3, N
          8    -9.07336883545E+001                                                     F               0         Blade 1 Y force, node 3, N
          9    -3.03405609131E+002                                                     F               0         Blade 1 Z force, node 3, N
         10     1.75865466309E+003                                                     F               0         Blade 1 X force, node 4, N
         11    -3.40437103271E+002                                                     F               0         Blade 1 Y force, node 4, N
         12    -3.26679656982E+002                                                     F               0         Blade 1 Z force, node 4, N
         13     2.01245849609E+003                                                     F               0         Blade 1 X force, node 5, N
         14    -5.90145507812E+002                                                     F               0         Blade 1 Y force, node 5, N
         15    -3.49956146240E+002                                                     F               0         Blade 1 Z force, node 5, N
         16     2.26625000000E+003                                                     F               0         Blade 1 X force, node 6, N
         17    -8.39851562500E+002                                                     F               0         Blade 1 Y force, node 6, N
         18    -3.73230499268E+002                                                     F               0         Blade 1 Z force, node 6, N
         19     2.52002465820E+003                                                     F               0         Blade 1 X force, node 7, N
         20    -1.08955041504E+003                                                     F               0         Blade 1 Y force, node 7, N
         21    -3.96502136230E+002                                                     F               0         Blade 1 Z force, node 7, N
         22     2.77381372070E+003                                                     F               0         Blade 1 X force, node 8, N
         23    -1.33925378418E+003                                                     F               0         Blade 1 Y force, node 8, N
         24    -4.19776214600E+002                                                     F               0         Blade 1 Z force, node 8, N
         25     3.02760302734E+003                                                     F               0         Blade 1 X force, node 9, N
         26    -1.58895727539E+003                                                     F               0         Blade 1 Y force, node 9, N
         27    -4.43050262451E+002                                                     F               0         Blade 1 Z force, node 9, N
         28     3.28139184570E+003                                                     F               0         Blade 1 X force, node 10, N
         29    -1.83866064453E+003                                                     F               0         Blade 1 Y force, node 10, N
         30    -4.66324310303E+002                                                     F               0         Blade 1 Z force, node 10, N
         31     3.53518090820E+003                                                     F               0         Blade 1 X force, node 11, N
         32    -2.08836401367E+003                                                     F               0         Blade 1 Y force, node 11, N
         33    -4.89598358154E+002                                                     F               0         Blade 1 Z force, node 11, N
         34     3.78899633789E+003                                                     F               0         Blade 1 X force, node 12, N
         35    -2.33808398438E+003                                                     F               0         Blade 1 Y force, node 12, N
         36    -5.12875976562E+002                                                     F               0         Blade 1 Z force, node 12, N
         37     4.04278784180E+003                                                     F               0         Blade 1 X force, node 13, N
         38    -2.58778979492E+003                                                     F               0         Blade 1 Y force, node 13, N
         39    -5.36150207520E+002                                                     F               0         Blade 1 Z force, node 13, N
         40     4.29655126953E+003                                                     F               0         Blade 1 X force, node 14, N
         41    -2.83747753906E+003                                                     F               0         Blade 1 Y force, node 14, N
         42    -5.59420837402E+002                                                     F               0         Blade 1 Z force, node 14, N
         43     4.55037060547E+003                                                     F               0         Blade 1 X force, node 15, N
         44    -3.08720166016E+003                                                     F               0         Blade 1 Y force, node 15, N
         45    -5.82698730469E+002                                                     F               0         Blade 1 Z force, node 15, N
         46     4.80412841797E+003                                                     F               0         Blade 1 X force, node 16, N
         47    -3.33688354492E+003                                                     F               0         Blade 1 Y force, node 16, N
         48    -6.05968811035E+002                                                     F               0         Blade 1 Z force, node 16, N
         49     5.85975390625E+003                                                     F               0         Blade 1 X force, node 17, N
         50    -4.15203320312E+003                                                     F               0         Blade 1 Y force, node 17, N
         51    -7.29371032715E+002                                                     F               0         Blade 1 Z force, node 17, N
         52     4.42040771484E+003                                                     F               0         Blade 1 X force, node 18, N
         53    -3.13206787109E+003                                                     F               0         Blade 1 Y force, node 18, N
         54    -5.50224548340E+002                                                     F               0         Blade 1 Z force, node 18, N
         55     5.36315332031E+003                                                     F               0         Blade 1 X force, node 19, N
         56    -3.77202246094E+003                                                     F               0         Blade 1 Y force, node 19, N
         57    -6.70906616211E+002                                                     F               0         Blade 1 Z force, node 19, N
         58     4.52432910156E+003                                                     F               0         Blade 1 X force, node 20, N
         59    -3.15974169922E+003                                                     F               0         Blade 1 Y force, node 20, N
         60    -5.68629455566E+002                                                     F               0         Blade 1 Z force, node 20, N
         61     6.75165869141E+003                                                     F               0         Blade 1 X force, node 21, N
         62    -4.69376464844E+003                                                     F               0         Blade 1 Y force, node 21, N
         63    -8.51126770020E+002                                                     F               0         Blade 1 Z force, node 21, N
         64     6.26228857422E+003                                                     F               0         Blade 1 X force, node 22, N
         65    -4.36177197266E+003                                                     F               0         Blade 1 Y force, node 22, N
         66    -7.88457824707E+002                                                     F               0         Blade 1 Z force, node 22, N
         67     6.72373046875E+003                                                     F               0         Blade 1 X force, node 23, N
         68    -4.69234863281E+003                                                     F               0         Blade 1 Y force, node 23, N
         69    -8.45464050293E+002                                                     F               0         Blade 1 Z force, node 23, N
         70     7.24455126953E+003                                                     F               0         Blade 1 X force, node 24, N
         71    -5.04632226562E+003                                                     F               0         Blade 1 Y force, node 24, N
         72    -9.12083740234E+002                                                     F               0         Blade 1 Z force, node 24, N
         73     7.39163623047E+003                                                     F               0         Blade 1 X force, node 25, N
         74    -5.06929394531E+003                                                     F               0         Blade 1 Y force, node 25, N
         75    -9.40060180664E+002                                                     F               0         Blade 1 Z force, node 25, N
         76     7.51972558594E+003                                                     F               0         Blade 1 X force, node 26, N
         77    -5.06212353516E+003                                                     F               0         Blade 1 Y force, node 26, N
         78    -9.67657348633E+002                                                     F               0         Blade 1 Z force, node 26, N
         79     8.89541503906E+003                                                     F               0         Blade 1 X force, node 27, N
         80    -5.87218457031E+003                                                     F               0         Blade 1 Y force, node 27, N
         81    -1.15849157715E+003                                                     F               0         Blade 1 Z force, node 27, N
         82     6.47703906250E+003                                                     F               0         Blade 1 X force, node 28, N
         83    -4.18901123047E+003                                                     F               0         Blade 1 Y force, node 28, N
         84    -8.53854431152E+002                                                     F               0         Blade 1 Z force, node 28, N
         85     7.78699804688E+003                                                     F               0         Blade 1 X force, node 29, N
         86    -4.94575537109E+003                                                     F               0         Blade 1 Y force, node 29, N
         87    -1.03730932617E+003                                                     F               0         Blade 1 Z force, node 29, N
         88     6.51469824219E+003                                                     F               0         Blade 1 X force, node 30, N
         89    -4.06334155273E+003                                                     F               0         Blade 1 Y force, node 30, N
         90    -8.76672119141E+002                                                     F               0         Blade 1 Z force, node 30, N
         91     9.22741015625E+003                                                     F               0         Blade 1 X force, node 31, N
         92    -5.63136572266E+003                                                     F               0         Blade 1 Y force, node 31, N
         93    -1.25646691895E+003                                                     F               0         Blade 1 Z force, node 31, N
         94     7.93962939453E+003                                                     F               0         Blade 1 X force, node 32, N
         95    -4.73624365234E+003                                                     F               0         Blade 1 Y force, node 32, N
         96    -1.09410961914E+003                                                     F               0         Blade 1 Z force, node 32, N
         97     7.98031103516E+003                                                     F               0         Blade 1 X force, node 33, N
         98    -4.65831005859E+003                                                     F               0         Blade 1 Y force, node 33, N
         99    -1.11187780762E+003                                                     F               0         Blade 1 Z force, node 33, N
        100     8.01977099609E+003                                                     F               0         Blade 1 X force, node 34, N
        101    -4.57938232422E+003                                                     F               0         Blade 1 Y force, node 34, N
        102    -1.12950915527E+003                                                     F               0         Blade 1 Z force, node 34, N
        103     8.04615625000E+003                                                     F               0         Blade 1 X force, node 35, N
        104    -4.49170947266E+003                                                     F               0         Blade 1 Y force, node 35, N
        105    -1.14545129395E+003                                                     F               0         Blade 1 Z force, node 35, N
        106     8.06713232422E+003                                                     F               0         Blade 1 X force, node 36, N
        107    -4.40065283203E+003                                                     F               0         Blade 1 Y force, node 36, N
        108    -1.16066650391E+003                                                     F               0         Blade 1 Z force, node 36, N
        109     9.44853710938E+003                                                     F               0         Blade 1 X force, node 37, N
        110    -5.02736914062E+003                                                     F               0         Blade 1 Y force, node 37, N
        111    -1.37451196289E+003                                                     F               0         Blade 1 Z force, node 37, N
        112     6.71291064453E+003                                                     F               0         Blade 1 X force, node 38, N
        113    -3.48688818359E+003                                                     F               0         Blade 1 Y force, node 38, N
        114    -9.86655517578E+002                                                     F               0         Blade 1 Z force, node 38, N
        115     8.04315185547E+003                                                     F               0         Blade 1 X force, node 39, N
        116    -4.09299487305E+003                                                     F               0         Blade 1 Y force, node 39, N
        117    -1.19227136230E+003                                                     F               0         Blade 1 Z force, node 39, N
        118     6.70649658203E+003                                                     F               0         Blade 1 X force, node 40, N
        119    -3.34126000977E+003                                                     F               0         Blade 1 Y force, node 40, N
        120    -1.00264617920E+003                                                     F               0         Blade 1 Z force, node 40, N
        121     9.25853417969E+003                                                     F               0         Blade 1 X force, node 41, N
        122    -4.50088671875E+003                                                     F               0         Blade 1 Y force, node 41, N
        123    -1.39749291992E+003                                                     F               0         Blade 1 Z force, node 41, N
        124     7.86136962891E+003                                                     F               0         Blade 1 X force, node 42, N
        125    -3.73227001953E+003                                                     F               0         Blade 1 Y force, node 42, N
        126    -1.19724316406E+003                                                     F               0         Blade 1 Z force, node 42, N
        127     7.76489843750E+003                                                     F               0         Blade 1 X force, node 43, N
        128    -3.60200048828E+003                                                     F               0         Blade 1 Y force, node 43, N
        129    -1.19260302734E+003                                                     F               0         Blade 1 Z force, node 43, N
        130     7.70033349609E+003                                                     F               0         Blade 1 X force, node 44, N
        131    -3.48827783203E+003                                                     F               0         Blade 1 Y force, node 44, N
        132    -1.19265551758E+003                                                     F               0         Blade 1 Z force, node 44, N
        133     7.48164306641E+003                                                     F               0         Blade 1 X force, node 45, N
        134    -3.31438549805E+003                                                     F               0         Blade 1 Y force, node 45, N