
Linearized model: Predictions were generated on 12-Jan-2024 at 09:28:28 using OpenFAST, compiled as a 64-bit application using single precision at commit v3.5.1
 linked with  NWTC Subroutine Library; ElastoDyn; InflowWind; AeroDyn; ServoDyn; HydroDyn; MAP++ (<1.20.10>, <Oct-20-2023>)

Description from the FAST input file: CCT-9 Campign 4 model. Input files to be run with OpenFAST 3.5.0. GitHub branch from Lu Wang (https://github.com/luwang00/openfast/tree/dev) compiled on March 7, 2023.

Simulation information:
   Simulation time:                   506.1750 s
   Rotor Speed:                         0.8777 rad/s
   Azimuth:                             2.9895 rad
   Wind Speed:                         10.0000 m/s
   Number of continuous states:        22
   Number of discrete states:           0
   Number of constraint states:         0
   Number of inputs:                 3988
   Number of outputs:                  58
   Jacobians included in this file?    No

Order of continuous states:
   Row/Column Operating Point                     Rotating Frame? Derivative Order Description
   ---------- ---------------                     --------------- ---------------- -----------
          1    8.829E+00                                 F               2         ED Platform horizontal surge translation DOF (internal DOF index = DOF_Sg), m
          2   -3.588E-01                                 F               2         ED Platform horizontal sway translation DOF (internal DOF index = DOF_Sw), m
          3   -1.671E-01                                 F               2         ED Platform vertical heave translation DOF (internal DOF index = DOF_Hv), m
          4    4.776E-02                                 F               2         ED Platform roll tilt rotation DOF (internal DOF index = DOF_R), rad
          5    1.188E-01                                 F               2         ED Platform pitch tilt rotation DOF (internal DOF index = DOF_P), rad
          6    7.278E-03                                 F               2         ED Platform yaw rotation DOF (internal DOF index = DOF_Y), rad
          7    7.534E-01                                 F               2         ED 1st tower fore-aft bending mode DOF (internal DOF index = DOF_TFA1), m
          8    1.955E-01                                 F               2         ED 1st tower side-to-side bending mode DOF (internal DOF index = DOF_TSS1), m
          9    1.529E-03                                 F               2         ED 2nd tower fore-aft bending mode DOF (internal DOF index = DOF_TFA2), m
         10    8.249E-05                                 F               2         ED 2nd tower side-to-side bending mode DOF (internal DOF index = DOF_TSS2), m
         11    1.419E+00                                 F               2         ED Variable speed generator DOF (internal DOF index = DOF_GeAz), rad
         12   -4.204E-03                                 F               2         ED First time derivative of Platform horizontal surge translation DOF (internal DOF index = DOF_Sg), m/s
         13    1.176E-03                                 F               2         ED First time derivative of Platform horizontal sway translation DOF (internal DOF index = DOF_Sw), m/s
         14    4.886E-03                                 F               2         ED First time derivative of Platform vertical heave translation DOF (internal DOF index = DOF_Hv), m/s
         15   -2.553E-04                                 F               2         ED First time derivative of Platform roll tilt rotation DOF (internal DOF index = DOF_R), rad/s
         16    4.163E-06                                 F               2         ED First time derivative of Platform pitch tilt rotation DOF (internal DOF index = DOF_P), rad/s
         17    1.272E-04                                 F               2         ED First time derivative of Platform yaw rotation DOF (internal DOF index = DOF_Y), rad/s
         18   -3.830E-03                                 F               2         ED First time derivative of 1st tower fore-aft bending mode DOF (internal DOF index = DOF_TFA1), m/s
         19   -1.098E-03                                 F               2         ED First time derivative of 1st tower side-to-side bending mode DOF (internal DOF index = DOF_TSS1), m/s
         20    2.078E-06                                 F               2         ED First time derivative of 2nd tower fore-aft bending mode DOF (internal DOF index = DOF_TFA2), m/s
         21    2.335E-08                                 F               2         ED First time derivative of 2nd tower side-to-side bending mode DOF (internal DOF index = DOF_TSS2), m/s
         22    8.777E-01                                 F               2         ED First time derivative of Variable speed generator DOF (internal DOF index = DOF_GeAz), rad/s

Order of continuous state derivatives:
   Row/Column Operating Point                     Rotating Frame? Derivative Order Description
   ---------- ---------------                     --------------- ---------------- -----------
          1   -4.204E-03                                 F               2         First time derivative of ED Platform horizontal surge translation DOF (internal DOF index = DOF_Sg), m/s
          2    1.176E-03                                 F               2         First time derivative of ED Platform horizontal sway translation DOF (internal DOF index = DOF_Sw), m/s
          3    4.886E-03                                 F               2         First time derivative of ED Platform vertical heave translation DOF (internal DOF index = DOF_Hv), m/s
          4   -2.553E-04                                 F               2         First time derivative of ED Platform roll tilt rotation DOF (internal DOF index = DOF_R), rad/s
          5    4.163E-06                                 F               2         First time derivative of ED Platform pitch tilt rotation DOF (internal DOF index = DOF_P), rad/s
          6    1.272E-04                                 F               2         First time derivative of ED Platform yaw rotation DOF (internal DOF index = DOF_Y), rad/s
          7   -3.830E-03                                 F               2         First time derivative of ED 1st tower fore-aft bending mode DOF (internal DOF index = DOF_TFA1), m/s
          8   -1.098E-03                                 F               2         First time derivative of ED 1st tower side-to-side bending mode DOF (internal DOF index = DOF_TSS1), m/s
          9    2.078E-06                                 F               2         First time derivative of ED 2nd tower fore-aft bending mode DOF (internal DOF index = DOF_TFA2), m/s
         10    2.335E-08                                 F               2         First time derivative of ED 2nd tower side-to-side bending mode DOF (internal DOF index = DOF_TSS2), m/s
         11    8.777E-01                                 F               2         First time derivative of ED Variable speed generator DOF (internal DOF index = DOF_GeAz), rad/s
         12   -1.139E-04                                 F               2         First time derivative of ED First time derivative of Platform horizontal surge translation DOF (internal DOF index = DOF_Sg), m/s/s
         13   -1.380E-03                                 F               2         First time derivative of ED First time derivative of Platform horizontal sway translation DOF (internal DOF index = DOF_Sw), m/s/s
         14    1.715E-04                                 F               2         First time derivative of ED First time derivative of Platform vertical heave translation DOF (internal DOF index = DOF_Hv), m/s/s
         15   -5.075E-05                                 F               2         First time derivative of ED First time derivative of Platform roll tilt rotation DOF (internal DOF index = DOF_R), rad/s/s
         16    1.357E-06                                 F               2         First time derivative of ED First time derivative of Platform pitch tilt rotation DOF (internal DOF index = DOF_P), rad/s/s
         17    1.875E-05                                 F               2         First time derivative of ED First time derivative of Platform yaw rotation DOF (internal DOF index = DOF_Y), rad/s/s
         18    8.529E-05                                 F               2         First time derivative of ED First time derivative of 1st tower fore-aft bending mode DOF (internal DOF index = DOF_TFA1), m/s/s
         19   -1.156E-02                                 F               2         First time derivative of ED First time derivative of 1st tower side-to-side bending mode DOF (internal DOF index = DOF_TSS1), m/s/s
         20   -3.802E-06                                 F               2         First time derivative of ED First time derivative of 2nd tower fore-aft bending mode DOF (internal DOF index = DOF_TFA2), m/s/s
         21   -2.757E-07                                 F               2         First time derivative of ED First time derivative of 2nd tower side-to-side bending mode DOF (internal DOF index = DOF_TSS2), m/s/s
         22    3.998E-04                                 F               2         First time derivative of ED First time derivative of Variable speed generator DOF (internal DOF index = DOF_GeAz), rad/s/s

Order of inputs:
     Column   Operating Point                     Rotating Frame? Derivative Order Description
   ---------- ---------------                     --------------- ---------------- -----------
          1   -1.080E+01                                 F               0         IfW X-component position of node 1 (hub), m
          2    0.000E+00                                 F               0         IfW Y-component position of node 1 (hub), m
          3    1.497E+02                                 F               0         IfW Z-component position of node 1 (hub), m
          4    1.535E+01                                 F               0         IfW X-component position of node 2 (blade 1, node 1), m
          5   -8.283E+00                                 F               0         IfW Y-component position of node 2 (blade 1, node 1), m
          6    1.443E+02                                 F               0         IfW Z-component position of node 2 (blade 1, node 1), m
          7    1.505E+01                                 F               0         IfW X-component position of node 3 (blade 1, node 2), m
          8   -8.422E+00                                 F               0         IfW Y-component position of node 3 (blade 1, node 2), m
          9    1.430E+02                                 F               0         IfW Z-component position of node 3 (blade 1, node 2), m
         10    1.094E+01                                 F               0         IfW X-component position of node 4 (blade 1, node 3), m
         11   -1.031E+01                                 F               0         IfW Y-component position of node 4 (blade 1, node 3), m
         12    1.254E+02                                 F               0         IfW Z-component position of node 4 (blade 1, node 3), m
         13    1.006E+01                                 F               0         IfW X-component position of node 5 (blade 1, node 4), m
         14   -1.071E+01                                 F               0         IfW Y-component position of node 5 (blade 1, node 4), m
         15    1.216E+02                                 F               0         IfW Z-component position of node 5 (blade 1, node 4), m
         16    9.185E+00                                 F               0         IfW X-component position of node 6 (blade 1, node 5), m
         17   -1.111E+01                                 F               0         IfW Y-component position of node 6 (blade 1, node 5), m
         18    1.179E+02                                 F               0         IfW Z-component position of node 6 (blade 1, node 5), m
         19    8.309E+00                                 F               0         IfW X-component position of node 7 (blade 1, node 6), m
         20   -1.152E+01                                 F               0         IfW Y-component position of node 7 (blade 1, node 6), m
         21    1.141E+02                                 F               0         IfW Z-component position of node 7 (blade 1, node 6), m
         22    7.433E+00                                 F               0         IfW X-component position of node 8 (blade 1, node 7), m
         23   -1.192E+01                                 F               0         IfW Y-component position of node 8 (blade 1, node 7), m
         24    1.104E+02                                 F               0         IfW Z-component position of node 8 (blade 1, node 7), m
         25    6.557E+00                                 F               0         IfW X-component position of node 9 (blade 1, node 8), m
         26   -1.232E+01                                 F               0         IfW Y-component position of node 9 (blade 1, node 8), m
         27    1.066E+02                                 F               0         IfW Z-component position of node 9 (blade 1, node 8), m
         28    5.681E+00                                 F               0         IfW X-component position of node 10 (blade 1, node 9), m
         29   -1.272E+01                                 F               0         IfW Y-component position of node 10 (blade 1, node 9), m
         30    1.029E+02                                 F               0         IfW Z-component position of node 10 (blade 1, node 9), m
         31    4.805E+00                                 F               0         IfW X-component position of node 11 (blade 1, node 10), m
         32   -1.313E+01                                 F               0         IfW Y-component position of node 11 (blade 1, node 10), m
         33    9.916E+01                                 F               0         IfW Z-component position of node 11 (blade 1, node 10), m
         34    3.929E+00                                 F               0         IfW X-component position of node 12 (blade 1, node 11), m
         35   -1.353E+01                                 F               0         IfW Y-component position of node 12 (blade 1, node 11), m
         36    9.541E+01                                 F               0         IfW Z-component position of node 12 (blade 1, node 11), m
         37    3.053E+00                                 F               0         IfW X-component position of node 13 (blade 1, node 12), m
         38   -1.393E+01                                 F               0         IfW Y-component position of node 13 (blade 1, node 12), m
         39    9.167E+01                                 F               0         IfW Z-component position of node 13 (blade 1, node 12), m
         40    2.177E+00                                 F               0         IfW X-component position of node 14 (blade 1, node 13), m
         41   -1.433E+01                                 F               0         IfW Y-component position of node 14 (blade 1, node 13), m
         42    8.792E+01                                 F               0         IfW Z-component position of node 14 (blade 1, node 13), m
         43    1.301E+00                                 F               0         IfW X-component position of node 15 (blade 1, node 14), m
         44   -1.474E+01                                 F               0         IfW Y-component position of node 15 (blade 1, node 14), m
         45    8.418E+01                                 F               0         IfW Z-component position of node 15 (blade 1, node 14), m
         46    4.247E-01                                 F               0         IfW X-component position of node 16 (blade 1, node 15), m
         47   -1.514E+01                                 F               0         IfW Y-component position of node 16 (blade 1, node 15), m
         48    8.043E+01                                 F               0         IfW Z-component position of node 16 (blade 1, node 15), m
         49   -4.513E-01                                 F               0         IfW X-component position of node 17 (blade 1, node 16), m
         50   -1.554E+01                                 F               0         IfW Y-component position of node 17 (blade 1, node 16), m
         51    7.668E+01                                 F               0         IfW Z-component position of node 17 (blade 1, node 16), m
         52   -1.327E+00                                 F               0         IfW X-component position of node 18 (blade 1, node 17), m
         53   -1.594E+01                                 F               0         IfW Y-component position of node 18 (blade 1, node 17), m
         54    7.294E+01                                 F               0         IfW Z-component position of node 18 (blade 1, node 17), m
         55   -2.203E+00                                 F               0         IfW X-component position of node 19 (blade 1, node 18), m
         56   -1.635E+01                                 F               0         IfW Y-component position of node 19 (blade 1, node 18), m
         57    6.919E+01                                 F               0         IfW Z-component position of node 19 (blade 1, node 18), m
         58   -3.079E+00                                 F               0         IfW X-component position of node 20 (blade 1, node 19), m
         59   -1.675E+01                                 F               0         IfW Y-component position of node 20 (blade 1, node 19), m
         60    6.545E+01                                 F               0         IfW Z-component position of node 20 (blade 1, node 19), m
         61   -3.955E+00                                 F               0         IfW X-component position of node 21 (blade 1, node 20), m
         62   -1.715E+01                                 F               0         IfW Y-component position of node 21 (blade 1, node 20), m
         63    6.170E+01                                 F               0         IfW Z-component position of node 21 (blade 1, node 20), m
         64   -4.831E+00                                 F               0         IfW X-component position of node 22 (blade 1, node 21), m
         65   -1.755E+01                                 F               0         IfW Y-component position of node 22 (blade 1, node 21), m
         66    5.796E+01                                 F               0         IfW Z-component position of node 22 (blade 1, node 21), m
         67   -5.707E+00                                 F               0         IfW X-component position of node 23 (blade 1, node 22), m
         68   -1.795E+01                                 F               0         IfW Y-component position of node 23 (blade 1, node 22), m
         69    5.421E+01                                 F               0         IfW Z-component position of node 23 (blade 1, node 22), m
         70   -6.583E+00                                 F               0         IfW X-component position of node 24 (blade 1, node 23), m
         71   -1.836E+01                                 F               0         IfW Y-component position of node 24 (blade 1, node 23), m
         72    5.046E+01                                 F               0         IfW Z-component position of node 24 (blade 1, node 23), m
         73   -7.459E+00                                 F               0         IfW X-component position of node 25 (blade 1, node 24), m
         74   -1.876E+01                                 F               0         IfW Y-component position of node 25 (blade 1, node 24), m
         75    4.672E+01                                 F               0         IfW Z-component position of node 25 (blade 1, node 24), m
         76   -8.335E+00                                 F               0         IfW X-component position of node 26 (blade 1, node 25), m
         77   -1.916E+01                                 F               0         IfW Y-component position of node 26 (blade 1, node 25), m
         78    4.297E+01                                 F               0         IfW Z-component position of node 26 (blade 1, node 25), m
         79   -9.211E+00                                 F               0         IfW X-component position of node 27 (blade 1, node 26), m
         80   -1.956E+01                                 F               0         IfW Y-component position of node 27 (blade 1, node 26), m
         81    3.923E+01                                 F               0         IfW Z-component position of node 27 (blade 1, node 26), m
         82   -1.009E+01                                 F               0         IfW X-component position of node 28 (blade 1, node 27), m
         83   -1.997E+01                                 F               0         IfW Y-component position of node 28 (blade 1, node 27), m
         84    3.548E+01                                 F               0         IfW Z-component position of node 28 (blade 1, node 27), m
         85   -1.083E+01                                 F               0         IfW X-component position of node 29 (blade 1, node 28), m
         86   -2.031E+01                                 F               0         IfW Y-component position of node 29 (blade 1, node 28), m
         87    3.231E+01                                 F               0         IfW Z-component position of node 29 (blade 1, node 28), m
         88    1.705E+01                                 F               0         IfW X-component position of node 30 (blade 2, node 1), m
         89   -2.647E+00                                 F               0         IfW Y-component position of node 30 (blade 2, node 1), m
         90    1.518E+02                                 F               0         IfW Z-component position of node 30 (blade 2, node 1), m
         91    1.715E+01                                 F               0         IfW X-component position of node 31 (blade 2, node 2), m
         92   -1.428E+00                                 F               0         IfW Y-component position of node 31 (blade 2, node 2), m
         93    1.524E+02                                 F               0         IfW Z-component position of node 31 (blade 2, node 2), m
         94    1.860E+01                                 F               0         IfW X-component position of node 32 (blade 2, node 3), m
         95    1.515E+01                                 F               0         IfW Y-component position of node 32 (blade 2, node 3), m
         96    1.596E+02                                 F               0         IfW Z-component position of node 32 (blade 2, node 3), m
         97    1.890E+01                                 F               0         IfW X-component position of node 33 (blade 2, node 4), m
         98    1.868E+01                                 F               0         IfW Y-component position of node 33 (blade 2, node 4), m
         99    1.612E+02                                 F               0         IfW Z-component position of node 33 (blade 2, node 4), m
        100    1.921E+01                                 F               0         IfW X-component position of node 34 (blade 2, node 5), m
        101    2.221E+01                                 F               0         IfW Y-component position of node 34 (blade 2, node 5), m
        102    1.627E+02                                 F               0         IfW Z-component position of node 34 (blade 2, node 5), m
        103    1.952E+01                                 F               0         IfW X-component position of node 35 (blade 2, node 6), m
        104    2.575E+01                                 F               0         IfW Y-component position of node 35 (blade 2, node 6), m
        105    1.643E+02                                 F               0         IfW Z-component position of node 35 (blade 2, node 6), m
        106    1.983E+01                                 F               0         IfW X-component position of node 36 (blade 2, node 7), m
        107    2.928E+01                                 F               0         IfW Y-component position of node 36 (blade 2, node 7), m
        108    1.658E+02                                 F               0         IfW Z-component position of node 36 (blade 2, node 7), m
        109    2.013E+01                                 F               0         IfW X-component position of node 37 (blade 2, node 8), m
        110    3.281E+01                                 F               0         IfW Y-component position of node 37 (blade 2, node 8), m
        111    1.673E+02                                 F               0         IfW Z-component position of node 37 (blade 2, node 8), m
        112    2.044E+01                                 F               0         IfW X-component position of node 38 (blade 2, node 9), m
        113    3.634E+01                                 F               0         IfW Y-component position of node 38 (blade 2, node 9), m
        114    1.689E+02                                 F               0         IfW Z-component position of node 38 (blade 2, node 9), m
        115    2.075E+01                                 F               0         IfW X-component position of node 39 (blade 2, node 10), m
        116    3.987E+01                                 F               0         IfW Y-component position of node 39 (blade 2, node 10), m
        117    1.704E+02                                 F               0         IfW Z-component position of node 39 (blade 2, node 10), m
        118    2.106E+01                                 F               0         IfW X-component position of node 40 (blade 2, node 11), m
        119    4.341E+01                                 F               0         IfW Y-component position of node 40 (blade 2, node 11), m
        120    1.720E+02                                 F               0         IfW Z-component position of node 40 (blade 2, node 11), m
        121    2.137E+01                                 F               0         IfW X-component position of node 41 (blade 2, node 12), m
        122    4.694E+01                                 F               0         IfW Y-component position of node 41 (blade 2, node 12), m
        123    1.735E+02                                 F               0         IfW Z-component position of node 41 (blade 2, node 12), m
        124    2.167E+01                                 F               0         IfW X-component position of node 42 (blade 2, node 13), m
        125    5.047E+01                                 F               0         IfW Y-component position of node 42 (blade 2, node 13), m
        126    1.751E+02                                 F               0         IfW Z-component position of node 42 (blade 2, node 13), m
        127    2.198E+01                                 F               0         IfW X-component position of node 43 (blade 2, node 14), m
        128    5.400E+01                                 F               0         IfW Y-component position of node 43 (blade 2, node 14), m
        129    1.766E+02                                 F               0         IfW Z-component position of node 43 (blade 2, node 14), m
        130    2.229E+01                                 F               0         IfW X-component position of node 44 (blade 2, node 15), m
        131    5.754E+01                                 F               0         IfW Y-component position of node 44 (blade 2, node 15), m
        132    1.782E+02                                 F               0         IfW Z-component position of node 44 (blade 2, node 15), m
        133    2.260E+01                                 F               0         IfW X-component position of node 45 (blade 2, node 16), m
        134    6.107E+01                                 F               0         IfW Y-component position of node 45 (blade 2, node 16), m
        135    1.797E+02                                 F               0         IfW Z-component position of node 45 (blade 2, node 16), m
        136    2.290E+01                                 F               0         IfW X-component position of node 46 (blade 2, node 17), m
        137    6.460E+01                                 F               0         IfW Y-component position of node 46 (blade 2, node 17), m
        138    1.813E+02                                 F               0         IfW Z-component position of node 46 (blade 2, node 17), m
        139    2.321E+01                                 F               0         IfW X-component position of node 47 (blade 2, node 18), m
        140    6.813E+01                                 F               0         IfW Y-component position of node 47 (blade 2, node 18), m
        141    1.828E+02                                 F               0         IfW Z-component position of node 47 (blade 2, node 18), m
        142    2.352E+01                                 F               0         IfW X-component position of node 48 (blade 2, node 19), m
        143    7.166E+01                                 F               0         IfW Y-component position of node 48 (blade 2, node 19), m
        144    1.843E+02                                 F               0         IfW Z-component position of node 48 (blade 2, node 19), m