
Linearized model: Predictions were generated on 12-Jan-2024 at 09:28:28 using OpenFAST, compiled as a 64-bit application using single precision at commit v3.5.1
 linked with  NWTC Subroutine Library; ElastoDyn; InflowWind; AeroDyn; ServoDyn; HydroDyn; MAP++ (<1.20.10>, <Oct-20-2023>)

Description from the FAST input file: CCT-9 Campign 4 model. Input files to be run with OpenFAST 3.5.0. GitHub branch from Lu Wang (https://github.com/luwang00/openfast/tree/dev) compiled on March 7, 2023.

Simulation information:
   Simulation time:                   506.9250 s
   Rotor Speed:                         0.8780 rad/s
   Azimuth:                             3.6479 rad
   Wind Speed:                         10.0000 m/s
   Number of continuous states:         0
   Number of discrete states:           0
   Number of constraint states:         0
   Number of inputs:                  303
   Number of outputs:                   1
   Jacobians included in this file?    No

Order of inputs:
     Column   Operating Point                     Rotating Frame? Derivative Order Description
   ---------- ---------------                     --------------- ---------------- -----------
          1   -1.080E+01                                 F               0         X-component position of node 1 (hub), m
          2    0.000E+00                                 F               0         Y-component position of node 1 (hub), m
          3    1.497E+02                                 F               0         Z-component position of node 1 (hub), m
          4    1.548E+01                                 F               0         X-component position of node 2 (blade 1, node 1), m
          5   -4.757E+00                                 F               0         Y-component position of node 2 (blade 1, node 1), m
          6    1.450E+02                                 F               0         Z-component position of node 2 (blade 1, node 1), m
          7    1.520E+01                                 F               0         X-component position of node 3 (blade 1, node 2), m
          8   -4.055E+00                                 F               0         Y-component position of node 3 (blade 1, node 2), m
          9    1.439E+02                                 F               0         Z-component position of node 3 (blade 1, node 2), m
         10    1.152E+01                                 F               0         X-component position of node 4 (blade 1, node 3), m
         11    5.492E+00                                 F               0         Y-component position of node 4 (blade 1, node 3), m
         12    1.289E+02                                 F               0         Z-component position of node 4 (blade 1, node 3), m
         13    1.073E+01                                 F               0         X-component position of node 5 (blade 1, node 4), m
         14    7.526E+00                                 F               0         Y-component position of node 5 (blade 1, node 4), m
         15    1.258E+02                                 F               0         Z-component position of node 5 (blade 1, node 4), m
         16    9.950E+00                                 F               0         X-component position of node 6 (blade 1, node 5), m
         17    9.561E+00                                 F               0         Y-component position of node 6 (blade 1, node 5), m
         18    1.226E+02                                 F               0         Z-component position of node 6 (blade 1, node 5), m
         19    9.165E+00                                 F               0         X-component position of node 7 (blade 1, node 6), m
         20    1.159E+01                                 F               0         Y-component position of node 7 (blade 1, node 6), m
         21    1.194E+02                                 F               0         Z-component position of node 7 (blade 1, node 6), m
         22    8.380E+00                                 F               0         X-component position of node 8 (blade 1, node 7), m
         23    1.363E+01                                 F               0         Y-component position of node 8 (blade 1, node 7), m
         24    1.162E+02                                 F               0         Z-component position of node 8 (blade 1, node 7), m
         25    7.595E+00                                 F               0         X-component position of node 9 (blade 1, node 8), m
         26    1.566E+01                                 F               0         Y-component position of node 9 (blade 1, node 8), m
         27    1.130E+02                                 F               0         Z-component position of node 9 (blade 1, node 8), m
         28    6.809E+00                                 F               0         X-component position of node 10 (blade 1, node 9), m
         29    1.770E+01                                 F               0         Y-component position of node 10 (blade 1, node 9), m
         30    1.098E+02                                 F               0         Z-component position of node 10 (blade 1, node 9), m
         31    6.024E+00                                 F               0         X-component position of node 11 (blade 1, node 10), m
         32    1.973E+01                                 F               0         Y-component position of node 11 (blade 1, node 10), m
         33    1.066E+02                                 F               0         Z-component position of node 11 (blade 1, node 10), m
         34    5.239E+00                                 F               0         X-component position of node 12 (blade 1, node 11), m
         35    2.177E+01                                 F               0         Y-component position of node 12 (blade 1, node 11), m
         36    1.034E+02                                 F               0         Z-component position of node 12 (blade 1, node 11), m
         37    4.454E+00                                 F               0         X-component position of node 13 (blade 1, node 12), m
         38    2.380E+01                                 F               0         Y-component position of node 13 (blade 1, node 12), m
         39    1.002E+02                                 F               0         Z-component position of node 13 (blade 1, node 12), m
         40    3.669E+00                                 F               0         X-component position of node 14 (blade 1, node 13), m
         41    2.583E+01                                 F               0         Y-component position of node 14 (blade 1, node 13), m
         42    9.700E+01                                 F               0         Z-component position of node 14 (blade 1, node 13), m
         43    2.884E+00                                 F               0         X-component position of node 15 (blade 1, node 14), m
         44    2.787E+01                                 F               0         Y-component position of node 15 (blade 1, node 14), m
         45    9.381E+01                                 F               0         Z-component position of node 15 (blade 1, node 14), m
         46    2.099E+00                                 F               0         X-component position of node 16 (blade 1, node 15), m
         47    2.990E+01                                 F               0         Y-component position of node 16 (blade 1, node 15), m
         48    9.062E+01                                 F               0         Z-component position of node 16 (blade 1, node 15), m
         49    1.314E+00                                 F               0         X-component position of node 17 (blade 1, node 16), m
         50    3.194E+01                                 F               0         Y-component position of node 17 (blade 1, node 16), m
         51    8.742E+01                                 F               0         Z-component position of node 17 (blade 1, node 16), m
         52    5.288E-01                                 F               0         X-component position of node 18 (blade 1, node 17), m
         53    3.397E+01                                 F               0         Y-component position of node 18 (blade 1, node 17), m
         54    8.423E+01                                 F               0         Z-component position of node 18 (blade 1, node 17), m
         55   -2.562E-01                                 F               0         X-component position of node 19 (blade 1, node 18), m
         56    3.601E+01                                 F               0         Y-component position of node 19 (blade 1, node 18), m
         57    8.103E+01                                 F               0         Z-component position of node 19 (blade 1, node 18), m
         58   -1.041E+00                                 F               0         X-component position of node 20 (blade 1, node 19), m
         59    3.804E+01                                 F               0         Y-component position of node 20 (blade 1, node 19), m
         60    7.784E+01                                 F               0         Z-component position of node 20 (blade 1, node 19), m
         61   -1.826E+00                                 F               0         X-component position of node 21 (blade 1, node 20), m
         62    4.007E+01                                 F               0         Y-component position of node 21 (blade 1, node 20), m
         63    7.464E+01                                 F               0         Z-component position of node 21 (blade 1, node 20), m
         64   -2.612E+00                                 F               0         X-component position of node 22 (blade 1, node 21), m
         65    4.211E+01                                 F               0         Y-component position of node 22 (blade 1, node 21), m
         66    7.145E+01                                 F               0         Z-component position of node 22 (blade 1, node 21), m
         67   -3.397E+00                                 F               0         X-component position of node 23 (blade 1, node 22), m
         68    4.414E+01                                 F               0         Y-component position of node 23 (blade 1, node 22), m
         69    6.825E+01                                 F               0         Z-component position of node 23 (blade 1, node 22), m
         70   -4.182E+00                                 F               0         X-component position of node 24 (blade 1, node 23), m
         71    4.618E+01                                 F               0         Y-component position of node 24 (blade 1, node 23), m
         72    6.506E+01                                 F               0         Z-component position of node 24 (blade 1, node 23), m
         73   -4.967E+00                                 F               0         X-component position of node 25 (blade 1, node 24), m
         74    4.821E+01                                 F               0         Y-component position of node 25 (blade 1, node 24), m
         75    6.187E+01                                 F               0         Z-component position of node 25 (blade 1, node 24), m
         76   -5.752E+00                                 F               0         X-component position of node 26 (blade 1, node 25), m
         77    5.024E+01                                 F               0         Y-component position of node 26 (blade 1, node 25), m
         78    5.867E+01                                 F               0         Z-component position of node 26 (blade 1, node 25), m
         79   -6.537E+00                                 F               0         X-component position of node 27 (blade 1, node 26), m
         80    5.228E+01                                 F               0         Y-component position of node 27 (blade 1, node 26), m
         81    5.548E+01                                 F               0         Z-component position of node 27 (blade 1, node 26), m
         82   -7.322E+00                                 F               0         X-component position of node 28 (blade 1, node 27), m
         83    5.431E+01                                 F               0         Y-component position of node 28 (blade 1, node 27), m
         84    5.228E+01                                 F               0         Z-component position of node 28 (blade 1, node 27), m
         85   -7.988E+00                                 F               0         X-component position of node 29 (blade 1, node 28), m
         86    5.604E+01                                 F               0         Y-component position of node 29 (blade 1, node 28), m
         87    4.957E+01                                 F               0         Z-component position of node 29 (blade 1, node 28), m
         88    1.768E+01                                 F               0         X-component position of node 30 (blade 2, node 1), m
         89   -5.048E+00                                 F               0         Y-component position of node 30 (blade 2, node 1), m
         90    1.544E+02                                 F               0         Z-component position of node 30 (blade 2, node 1), m
         91    1.794E+01                                 F               0         X-component position of node 31 (blade 2, node 2), m
         92   -4.416E+00                                 F               0         Y-component position of node 31 (blade 2, node 2), m
         93    1.555E+02                                 F               0         Z-component position of node 31 (blade 2, node 2), m
         94    2.147E+01                                 F               0         X-component position of node 32 (blade 2, node 3), m
         95    4.178E+00                                 F               0         Y-component position of node 32 (blade 2, node 3), m
         96    1.711E+02                                 F               0         Z-component position of node 32 (blade 2, node 3), m
         97    2.223E+01                                 F               0         X-component position of node 33 (blade 2, node 4), m
         98    6.010E+00                                 F               0         Y-component position of node 33 (blade 2, node 4), m
         99    1.744E+02                                 F               0         Z-component position of node 33 (blade 2, node 4), m
        100    2.298E+01                                 F               0         X-component position of node 34 (blade 2, node 5), m
        101    7.841E+00                                 F               0         Y-component position of node 34 (blade 2, node 5), m
        102    1.778E+02                                 F               0         Z-component position of node 34 (blade 2, node 5), m
        103    2.373E+01                                 F               0         X-component position of node 35 (blade 2, node 6), m
        104    9.672E+00                                 F               0         Y-component position of node 35 (blade 2, node 6), m
        105    1.811E+02                                 F               0         Z-component position of node 35 (blade 2, node 6), m
        106    2.449E+01                                 F               0         X-component position of node 36 (blade 2, node 7), m
        107    1.150E+01                                 F               0         Y-component position of node 36 (blade 2, node 7), m
        108    1.844E+02                                 F               0         Z-component position of node 36 (blade 2, node 7), m
        109    2.524E+01                                 F               0         X-component position of node 37 (blade 2, node 8), m
        110    1.333E+01                                 F               0         Y-component position of node 37 (blade 2, node 8), m
        111    1.877E+02                                 F               0         Z-component position of node 37 (blade 2, node 8), m
        112    2.599E+01                                 F               0         X-component position of node 38 (blade 2, node 9), m
        113    1.517E+01                                 F               0         Y-component position of node 38 (blade 2, node 9), m
        114    1.911E+02                                 F               0         Z-component position of node 38 (blade 2, node 9), m
        115    2.675E+01                                 F               0         X-component position of node 39 (blade 2, node 10), m
        116    1.700E+01                                 F               0         Y-component position of node 39 (blade 2, node 10), m
        117    1.944E+02                                 F               0         Z-component position of node 39 (blade 2, node 10), m
        118    2.750E+01                                 F               0         X-component position of node 40 (blade 2, node 11), m
        119    1.883E+01                                 F               0         Y-component position of node 40 (blade 2, node 11), m
        120    1.977E+02                                 F               0         Z-component position of node 40 (blade 2, node 11), m
        121    2.825E+01                                 F               0         X-component position of node 41 (blade 2, node 12), m
        122    2.066E+01                                 F               0         Y-component position of node 41 (blade 2, node 12), m
        123    2.010E+02                                 F               0         Z-component position of node 41 (blade 2, node 12), m
        124    2.901E+01                                 F               0         X-component position of node 42 (blade 2, node 13), m
        125    2.249E+01                                 F               0         Y-component position of node 42 (blade 2, node 13), m
        126    2.043E+02                                 F               0         Z-component position of node 42 (blade 2, node 13), m
        127    2.976E+01                                 F               0         X-component position of node 43 (blade 2, node 14), m
        128    2.432E+01                                 F               0         Y-component position of node 43 (blade 2, node 14), m
        129    2.077E+02                                 F               0         Z-component position of node 43 (blade 2, node 14), m
        130    3.051E+01                                 F               0         X-component position of node 44 (blade 2, node 15), m
        131    2.615E+01                                 F               0         Y-component position of node 44 (blade 2, node 15), m
        132    2.110E+02                                 F               0         Z-component position of node 44 (blade 2, node 15), m
        133    3.127E+01                                 F               0         X-component position of node 45 (blade 2, node 16), m
        134    2.798E+01                                 F               0         Y-component position of node 45 (blade 2, node 16), m
        135    2.143E+02                                 F               0         Z-component position of node 45 (blade 2, node 16), m
        136    3.202E+01                                 F               0         X-component position of node 46 (blade 2, node 17), m
        137    2.982E+01                                 F               0         Y-component position of node 46 (blade 2, node 17), m
        138    2.176E+02                                 F               0         Z-component position of node 46 (blade 2, node 17), m
        139    3.277E+01                                 F               0         X-component position of node 47 (blade 2, node 18), m
        140    3.165E+01                                 F               0         Y-component position of node 47 (blade 2, node 18), m
        141    2.210E+02                                 F               0         Z-component position of node 47 (blade 2, node 18), m
        142    3.353E+01                                 F               0         X-component position of node 48 (blade 2, node 19), m
        143    3.348E+01                                 F               0         Y-component position of node 48 (blade 2, node 19), m
        144    2.243E+02                                 F               0         Z-component position of node 48 (blade 2, node 19), m
        145    3.428E+01                                 F               0         X-component position of node 49 (blade 2, node 20), m
        146    3.531E+01                                 F               0         Y-component position of node 49 (blade 2, node 20), m
        147    2.276E+02                                 F               0         Z-component position of node 49 (blade 2, node 20), m
        148    3.503E+01                                 F               0         X-component position of node 50 (blade 2, node 21), m
        149    3.714E+01                                 F               0         Y-component position of node 50 (blade 2, node 21), m
        150    2.309E+02                                 F               0         Z-component position of node 50 (blade 2, node 21), m
        151    3.579E+01                                 F               0         X-component position of node 51 (blade 2, node 22), m
        152    3.897E+01                                 F               0         Y-component position of node 51 (blade 2, node 22), m
        153    2.342E+02                                 F               0         Z-component position of node 51 (blade 2, node 22), m
        154    3.654E+01                                 F               0         X-component position of node 52 (blade 2, node 23), m
        155    4.080E+01                                 F               0         Y-component position of node 52 (blade 2, node 23), m
        156    2.376E+02                                 F               0         Z-component position of node 52 (blade 2, node 23), m
        157    3.729E+01                                 F               0         X-component position of node 53 (blade 2, node 24), m
        158    4.263E+01                                 F               0         Y-component position of node 53 (blade 2, node 24), m
        159    2.409E+02                                 F               0         Z-component position of node 53 (blade 2, node 24), m
        160    3.805E+01                                 F               0         X-component position of node 54 (blade 2, node 25), m
        161    4.447E+01                                 F               0         Y-component position of node 54 (blade 2, node 25), m
        162    2.442E+02                                 F               0         Z-component position of node 54 (blade 2, node 25), m
        163    3.880E+01                                 F               0         X-component position of node 55 (blade 2, node 26), m
        164    4.630E+01                                 F               0         Y-component position of node 55 (blade 2, node 26), m
        165    2.475E+02                                 F               0         Z-component position of node 55 (blade 2, node 26), m
        166    3.955E+01                                 F               0         X-component position of node 56 (blade 2, node 27), m
        167    4.813E+01                                 F               0         Y-component position of node 56 (blade 2, node 27), m
        168    2.509E+02                                 F               0         Z-component position of node 56 (blade 2, node 27), m
        169    4.019E+01                                 F               0         X-component position of node 57 (blade 2, node 28), m
        170    4.968E+01                                 F               0         Y-component position of node 57 (blade 2, node 28), m
        171    2.537E+02                                 F               0         Z-component position of node 57 (blade 2, node 28), m
        172    1.665E+01                                 F               0         X-component position of node 58 (blade 3, node 1), m
        173   -1.321E+01                                 F               0         Y-component position of node 58 (blade 3, node 1), m
        174    1.494E+02                                 F               0         Z-component position of node 58 (blade 3, node 1), m
        175    1.666E+01                                 F               0         X-component position of node 59 (blade 3, node 2), m
        176   -1.454E+01                                 F               0         Y-component position of node 59 (blade 3, node 2), m
        177    1.494E+02                                 F               0         Z-component position of node 59 (blade 3, node 2), m
        178    1.681E+01                                 F               0         X-component position of node 60 (blade 3, node 3), m
        179   -3.268E+01                                 F               0         Y-component position of node 60 (blade 3, node 3), m
        180    1.488E+02                                 F               0         Z-component position of node 60 (blade 3, node 3), m
        181    1.684E+01                                 F               0         X-component position of node 61 (blade 3, node 4), m
        182   -3.655E+01                                 F               0         Y-component position of node 61 (blade 3, node 4), m
        183    1.487E+02                                 F               0         Z-component position of node 61 (blade 3, node 4), m
        184    1.687E+01                                 F               0         X-component position of node 62 (blade 3, node 5), m
        185   -4.042E+01                                 F               0         Y-component position of node 62 (blade 3, node 5), m
        186    1.485E+02                                 F               0         Z-component position of node 62 (blade 3, node 5), m
        187    1.690E+01                                 F               0         X-component position of node 63 (blade 3, node 6), m
        188   -4.428E+01                                 F               0         Y-component position of node 63 (blade 3, node 6), m
        189    1.484E+02                                 F               0         Z-component position of node 63 (blade 3, node 6), m
        190    1.693E+01                                 F               0         X-component position of node 64 (blade 3, node 7), m
        191   -4.815E+01                                 F               0         Y-component position of node 64 (blade 3, node 7), m
        192    1.483E+02                                 F               0         Z-component position of node 64 (blade 3, node 7), m
        193    1.696E+01                                 F               0         X-component position of node 65 (blade 3, node 8), m
        194   -5.201E+01                                 F               0         Y-component position of node 65 (blade 3, node 8), m
        195    1.482E+02                                 F               0         Z-component position of node 65 (blade 3, node 8), m
        196    1.700E+01                                 F               0         X-component position of node 66 (blade 3, node 9), m
        197   -5.588E+01                                 F               0         Y-component position of node 66 (blade 3, node 9), m
        198    1.480E+02                                 F               0         Z-component position of node 66 (blade 3, node 9), m
        199    1.703E+01                                 F               0         X-component position of node 67 (blade 3, node 10), m
        200   -5.974E+01                                 F               0         Y-component position of node 67 (blade 3, node 10), m
        201    1.479E+02                                 F               0         Z-component position of node 67 (blade 3, node 10), m
        202    1.706E+01                                 F               0         X-component position of node 68 (blade 3, node 11), m
        203   -6.361E+01                                 F               0         Y-component position of node 68 (blade 3, node 11), m
        204    1.478E+02                                 F               0         Z-component position of node 68 (blade 3, node 11), m
        205    1.709E+01                                 F               0         X-component position of node 69 (blade 3, node 12), m
        206   -6.747E+01                                 F               0         Y-component position of node 69 (blade 3, node 12), m
        207    1.476E+02                                 F               0         Z-component position of node 69 (blade 3, node 12), m
        208    1.712E+01                                 F               0         X-component position of node 70 (blade 3, node 13), m
        209   -7.134E+01                                 F               0         Y-component position of node 70 (blade 3, node 13), m
        210    1.475E+02                                 F               0         Z-component position of node 70 (blade 3, node 13), m
        211    1.716E+01                                 F               0         X-component position of node 71 (blade 3, node 14), m