
Linearized model: Predictions were generated on 13-Feb-2024 at 12:12:09 using OpenFAST, compiled as a 64-bit application using single precision at commit v3.5.1
 linked with  NWTC Subroutine Library; ElastoDyn; InflowWind; AeroDyn; ServoDyn; HydroDyn; MAP++ (<1.20.10>, <Oct-20-2023>)

Description from the FAST input file: CCT-9 Campign 4 model. Input files to be run with OpenFAST 3.5.0. GitHub branch from Lu Wang (https://github.com/luwang00/openfast/tree/dev) compiled on March 7, 2023.

Simulation information:
   Simulation time:                   772.2000 s
   Rotor Speed:                         0.7916 rad/s
   Azimuth:                             1.3973 rad
   Wind Speed:                         24.0000 m/s
   Number of continuous states:        22
   Number of discrete states:           0
   Number of constraint states:         0
   Number of inputs:                 1890
   Number of outputs:                  25
   Jacobians included in this file?    No

Order of continuous states:
   Row/Column Operating Point                                                   Rotating Frame? Derivative Order Description
   ---------- ---------------                                                   --------------- ---------------- -----------
          1     6.82575273514E+000                                                     F               2         Platform horizontal surge translation DOF (internal DOF index = DOF_Sg), m
          2    -8.27924191952E-001                                                     F               2         Platform horizontal sway translation DOF (internal DOF index = DOF_Sw), m
          3    -1.05127006769E-001                                                     F               2         Platform vertical heave translation DOF (internal DOF index = DOF_Hv), m
          4     5.44279590249E-002                                                     F               2         Platform roll tilt rotation DOF (internal DOF index = DOF_R), rad
          5     9.53179895878E-002                                                     F               2         Platform pitch tilt rotation DOF (internal DOF index = DOF_P), rad
          6    -9.30701103061E-003                                                     F               2         Platform yaw rotation DOF (internal DOF index = DOF_Y), rad
          7     5.25617241859E-001                                                     F               2         1st tower fore-aft bending mode DOF (internal DOF index = DOF_TFA1), m
          8     2.63588190079E-001                                                     F               2         1st tower side-to-side bending mode DOF (internal DOF index = DOF_TSS1), m
          9     1.52991991490E-003                                                     F               2         2nd tower fore-aft bending mode DOF (internal DOF index = DOF_TFA2), m
         10    -2.94191006105E-004                                                     F               2         2nd tower side-to-side bending mode DOF (internal DOF index = DOF_TSS2), m
         11     6.10973882675E+000                                                     F               2         Variable speed generator DOF (internal DOF index = DOF_GeAz), rad
         12    -4.94467327371E-004                                                     F               2         First time derivative of Platform horizontal surge translation DOF (internal DOF index = DOF_Sg), m/s
         13     2.46429163963E-003                                                     F               2         First time derivative of Platform horizontal sway translation DOF (internal DOF index = DOF_Sw), m/s
         14     5.80290856306E-004                                                     F               2         First time derivative of Platform vertical heave translation DOF (internal DOF index = DOF_Hv), m/s
         15    -1.14921895147E-004                                                     F               2         First time derivative of Platform roll tilt rotation DOF (internal DOF index = DOF_R), rad/s
         16     2.33580685745E-005                                                     F               2         First time derivative of Platform pitch tilt rotation DOF (internal DOF index = DOF_P), rad/s
         17     5.50527602172E-007                                                     F               2         First time derivative of Platform yaw rotation DOF (internal DOF index = DOF_Y), rad/s
         18    -6.15827506408E-003                                                     F               2         First time derivative of 1st tower fore-aft bending mode DOF (internal DOF index = DOF_TFA1), m/s
         19     2.28489767760E-002                                                     F               2         First time derivative of 1st tower side-to-side bending mode DOF (internal DOF index = DOF_TSS1), m/s
         20    -1.99144065846E-004                                                     F               2         First time derivative of 2nd tower fore-aft bending mode DOF (internal DOF index = DOF_TFA2), m/s
         21     6.87807141730E-006                                                     F               2         First time derivative of 2nd tower side-to-side bending mode DOF (internal DOF index = DOF_TSS2), m/s
         22     7.91614353657E-001                                                     F               2         First time derivative of Variable speed generator DOF (internal DOF index = DOF_GeAz), rad/s

Order of continuous state derivatives:
   Row/Column Operating Point                                                   Rotating Frame? Derivative Order Description
   ---------- ---------------                                                   --------------- ---------------- -----------
          1    -4.94467327371E-004                                                     F               2         First time derivative of Platform horizontal surge translation DOF (internal DOF index = DOF_Sg), m/s
          2     2.46429163963E-003                                                     F               2         First time derivative of Platform horizontal sway translation DOF (internal DOF index = DOF_Sw), m/s
          3     5.80290856306E-004                                                     F               2         First time derivative of Platform vertical heave translation DOF (internal DOF index = DOF_Hv), m/s
          4    -1.14921895147E-004                                                     F               2         First time derivative of Platform roll tilt rotation DOF (internal DOF index = DOF_R), rad/s
          5     2.33580685745E-005                                                     F               2         First time derivative of Platform pitch tilt rotation DOF (internal DOF index = DOF_P), rad/s
          6     5.50527602172E-007                                                     F               2         First time derivative of Platform yaw rotation DOF (internal DOF index = DOF_Y), rad/s
          7    -6.15827506408E-003                                                     F               2         First time derivative of 1st tower fore-aft bending mode DOF (internal DOF index = DOF_TFA1), m/s
          8     2.28489767760E-002                                                     F               2         First time derivative of 1st tower side-to-side bending mode DOF (internal DOF index = DOF_TSS1), m/s
          9    -1.99144065846E-004                                                     F               2         First time derivative of 2nd tower fore-aft bending mode DOF (internal DOF index = DOF_TFA2), m/s
         10     6.87807141730E-006                                                     F               2         First time derivative of 2nd tower side-to-side bending mode DOF (internal DOF index = DOF_TSS2), m/s
         11     7.91614353657E-001                                                     F               2         First time derivative of Variable speed generator DOF (internal DOF index = DOF_GeAz), rad/s
         12    -8.52549914271E-003                                                     F               2         First time derivative of First time derivative of Platform horizontal surge translation DOF (internal DOF index = DOF_Sg), m/s/s
         13     2.45882943273E-003                                                     F               2         First time derivative of First time derivative of Platform horizontal sway translation DOF (internal DOF index = DOF_Sw), m/s/s
         14    -7.79884867370E-004                                                     F               2         First time derivative of First time derivative of Platform vertical heave translation DOF (internal DOF index = DOF_Hv), m/s/s
         15    -1.42027871334E-004                                                     F               2         First time derivative of First time derivative of Platform roll tilt rotation DOF (internal DOF index = DOF_R), rad/s/s
         16    -5.49588468857E-004                                                     F               2         First time derivative of First time derivative of Platform pitch tilt rotation DOF (internal DOF index = DOF_P), rad/s/s
         17    -3.31142582581E-005                                                     F               2         First time derivative of First time derivative of Platform yaw rotation DOF (internal DOF index = DOF_Y), rad/s/s
         18     1.26162678003E-001                                                     F               2         First time derivative of First time derivative of 1st tower fore-aft bending mode DOF (internal DOF index = DOF_TFA1), m/s/s
         19     2.79863420874E-002                                                     F               2         First time derivative of First time derivative of 1st tower side-to-side bending mode DOF (internal DOF index = DOF_TSS1), m/s/s
         20    -1.80960563011E-003                                                     F               2         First time derivative of First time derivative of 2nd tower fore-aft bending mode DOF (internal DOF index = DOF_TFA2), m/s/s
         21     4.53258922789E-004                                                     F               2         First time derivative of First time derivative of 2nd tower side-to-side bending mode DOF (internal DOF index = DOF_TSS2), m/s/s
         22    -5.53049496375E-004                                                     F               2         First time derivative of First time derivative of Variable speed generator DOF (internal DOF index = DOF_GeAz), rad/s/s

Order of inputs:
     Column   Operating Point                                                   Rotating Frame? Derivative Order Description
   ---------- ---------------                                                   --------------- ---------------- -----------
          1     4.47089050293E+002                                                     F               0         Blade 1 X force, node 1, N
          2     3.36792602539E+001                                                     F               0         Blade 1 Y force, node 1, N
          3     2.05074172974E+002                                                     F               0         Blade 1 Z force, node 1, N
          4     1.64298950195E+003                                                     F               0         Blade 1 X force, node 2, N
          5     5.42325057983E+001                                                     F               0         Blade 1 Y force, node 2, N
          6     1.39744140625E+002                                                     F               0         Blade 1 Z force, node 2, N
          7     1.79421276855E+003                                                     F               0         Blade 1 X force, node 3, N
          8     2.07153797150E+000                                                     F               0         Blade 1 Y force, node 3, N
          9    -3.51959991455E+002                                                     F               0         Blade 1 Z force, node 3, N
         10     2.11845776367E+003                                                     F               0         Blade 1 X force, node 4, N
         11    -4.36891746521E+001                                                     F               0         Blade 1 Y force, node 4, N
         12    -8.22864501953E+002                                                     F               0         Blade 1 Z force, node 4, N
         13     2.44272094727E+003                                                     F               0         Blade 1 X force, node 5, N
         14    -8.94506835938E+001                                                     F               0         Blade 1 Y force, node 5, N
         15    -1.29377941895E+003                                                     F               0         Blade 1 Z force, node 5, N
         16     2.76696923828E+003                                                     F               0         Blade 1 X force, node 6, N
         17    -1.35211883545E+002                                                     F               0         Blade 1 Y force, node 6, N
         18    -1.76468884277E+003                                                     F               0         Blade 1 Z force, node 6, N
         19     3.09119702148E+003                                                     F               0         Blade 1 X force, node 7, N
         20    -1.80971923828E+002                                                     F               0         Blade 1 Y force, node 7, N
         21    -2.23558325195E+003                                                     F               0         Blade 1 Z force, node 7, N
         22     3.41544238281E+003                                                     F               0         Blade 1 X force, node 8, N
         23    -2.26732604980E+002                                                     F               0         Blade 1 Y force, node 8, N
         24    -2.70648803711E+003                                                     F               0         Blade 1 Z force, node 8, N
         25     3.73968750000E+003                                                     F               0         Blade 1 X force, node 9, N
         26    -2.72493347168E+002                                                     F               0         Blade 1 Y force, node 9, N
         27    -3.17739257812E+003                                                     F               0         Blade 1 Z force, node 9, N
         28     4.06393261719E+003                                                     F               0         Blade 1 X force, node 10, N
         29    -3.18254058838E+002                                                     F               0         Blade 1 Y force, node 10, N
         30    -3.64829663086E+003                                                     F               0         Blade 1 Z force, node 10, N
         31     4.38817724609E+003                                                     F               0         Blade 1 X force, node 11, N
         32    -3.64014739990E+002                                                     F               0         Blade 1 Y force, node 11, N
         33    -4.11920117188E+003                                                     F               0         Blade 1 Z force, node 11, N
         34     4.71245507812E+003                                                     F               0         Blade 1 X force, node 12, N
         35    -4.09778381348E+002                                                     F               0         Blade 1 Y force, node 12, N
         36    -4.59013818359E+003                                                     F               0         Blade 1 Z force, node 12, N
         37     5.03670312500E+003                                                     F               0         Blade 1 X force, node 13, N
         38    -4.55539611816E+002                                                     F               0         Blade 1 Y force, node 13, N
         39    -5.06104687500E+003                                                     F               0         Blade 1 Z force, node 13, N
         40     5.36091699219E+003                                                     F               0         Blade 1 X force, node 14, N
         41    -5.01297515869E+002                                                     F               0         Blade 1 Y force, node 14, N
         42    -5.53192041016E+003                                                     F               0         Blade 1 Z force, node 14, N
         43     5.68519970703E+003                                                     F               0         Blade 1 X force, node 15, N
         44    -5.47061950684E+002                                                     F               0         Blade 1 Y force, node 15, N
         45    -6.00286523438E+003                                                     F               0         Blade 1 Z force, node 15, N
         46     6.00940576172E+003                                                     F               0         Blade 1 X force, node 16, N
         47    -5.92818786621E+002                                                     F               0         Blade 1 Y force, node 16, N
         48    -6.47372705078E+003                                                     F               0         Blade 1 Z force, node 16, N
         49     7.33281738281E+003                                                     F               0         Blade 1 X force, node 17, N
         50    -7.37640380859E+002                                                     F               0         Blade 1 Y force, node 17, N
         51    -8.02536718750E+003                                                     F               0         Blade 1 Z force, node 17, N
         52     5.49582470703E+003                                                     F               0         Blade 1 X force, node 18, N
         53    -5.44384338379E+002                                                     F               0         Blade 1 Y force, node 18, N
         54    -5.94014746094E+003                                                     F               0         Blade 1 Z force, node 18, N
         55     6.61362304688E+003                                                     F               0         Blade 1 X force, node 19, N
         56    -6.37569824219E+002                                                     F               0         Blade 1 Y force, node 19, N
         57    -6.99349267578E+003                                                     F               0         Blade 1 Z force, node 19, N
         58     5.53597558594E+003                                                     F               0         Blade 1 X force, node 20, N
         59    -5.19601318359E+002                                                     F               0         Blade 1 Y force, node 20, N
         60    -5.72963818359E+003                                                     F               0         Blade 1 Z force, node 20, N
         61     7.99340820312E+003                                                     F               0         Blade 1 X force, node 21, N
         62    -7.27223999023E+002                                                     F               0         Blade 1 Y force, node 21, N
         63    -8.06972363281E+003                                                     F               0         Blade 1 Z force, node 21, N
         64     6.88094335938E+003                                                     F               0         Blade 1 X force, node 22, N
         65    -6.07023315430E+002                                                     F               0         Blade 1 Y force, node 22, N
         66    -6.77897949219E+003                                                     F               0         Blade 1 Z force, node 22, N
         67     6.90908691406E+003                                                     F               0         Blade 1 X force, node 23, N
         68    -5.92120971680E+002                                                     F               0         Blade 1 Y force, node 23, N
         69    -6.65322265625E+003                                                     F               0         Blade 1 Z force, node 23, N
         70     7.05094091797E+003                                                     F               0         Blade 1 X force, node 24, N
         71    -5.87062744141E+002                                                     F               0         Blade 1 Y force, node 24, N
         72    -6.63783886719E+003                                                     F               0         Blade 1 Z force, node 24, N
         73     7.03765380859E+003                                                     F               0         Blade 1 X force, node 25, N
         74    -5.70075866699E+002                                                     F               0         Blade 1 Y force, node 25, N
         75    -6.48513085938E+003                                                     F               0         Blade 1 Z force, node 25, N
         76     7.05711376953E+003                                                     F               0         Blade 1 X force, node 26, N
         77    -5.56109375000E+002                                                     F               0         Blade 1 Y force, node 26, N
         78    -6.36584326172E+003                                                     F               0         Blade 1 Z force, node 26, N
         79     8.22659375000E+003                                                     F               0         Blade 1 X force, node 27, N
         80    -6.29270690918E+002                                                     F               0         Blade 1 Y force, node 27, N
         81    -7.25307226562E+003                                                     F               0         Blade 1 Z force, node 27, N
         82     5.92485253906E+003                                                     F               0         Blade 1 X force, node 28, N
         83    -4.40721832275E+002                                                     F               0         Blade 1 Y force, node 28, N
         84    -5.11350634766E+003                                                     F               0         Blade 1 Z force, node 28, N
         85     7.06737890625E+003                                                     F               0         Blade 1 X force, node 29, N
         86    -5.13486633301E+002                                                     F               0         Blade 1 Y force, node 29, N
         87    -5.99167236328E+003                                                     F               0         Blade 1 Z force, node 29, N
         88     5.86684423828E+003                                                     F               0         Blade 1 X force, node 30, N
         89    -4.16138397217E+002                                                     F               0         Blade 1 Y force, node 30, N
         90    -4.88450292969E+003                                                     F               0         Blade 1 Z force, node 30, N
         91     8.21920800781E+003                                                     F               0         Blade 1 X force, node 31, N
         92    -5.66913513184E+002                                                     F               0         Blade 1 Y force, node 31, N
         93    -6.70103320312E+003                                                     F               0         Blade 1 Z force, node 31, N
         94     6.96866992188E+003                                                     F               0         Blade 1 X force, node 32, N
         95    -4.67837738037E+002                                                     F               0         Blade 1 Y force, node 32, N
         96    -5.56829589844E+003                                                     F               0         Blade 1 Z force, node 32, N
         97     6.90549365234E+003                                                     F               0         Blade 1 X force, node 33, N
         98    -4.51546752930E+002                                                     F               0         Blade 1 Y force, node 33, N
         99    -5.41143554688E+003                                                     F               0         Blade 1 Z force, node 33, N
        100     6.83922363281E+003                                                     F               0         Blade 1 X force, node 34, N
        101    -4.35373413086E+002                                                     F               0         Blade 1 Y force, node 34, N
        102    -5.25497460938E+003                                                     F               0         Blade 1 Z force, node 34, N
        103     6.75350683594E+003                                                     F               0         Blade 1 X force, node 35, N
        104    -4.19209045410E+002                                                     F               0         Blade 1 Y force, node 35, N
        105    -5.09458056641E+003                                                     F               0         Blade 1 Z force, node 35, N
        106     6.66112890625E+003                                                     F               0         Blade 1 X force, node 36, N
        107    -4.02934844971E+002                                                     F               0         Blade 1 Y force, node 36, N
        108    -4.93184326172E+003                                                     F               0         Blade 1 Z force, node 36, N
        109     7.66622558594E+003                                                     F               0         Blade 1 X force, node 37, N
        110    -4.50583831787E+002                                                     F               0         Blade 1 Y force, node 37, N
        111    -5.55991699219E+003                                                     F               0         Blade 1 Z force, node 37, N
        112     5.35742919922E+003                                                     F               0         Blade 1 X force, node 38, N
        113    -3.06482574463E+002                                                     F               0         Blade 1 Y force, node 38, N
        114    -3.81129614258E+003                                                     F               0         Blade 1 Z force, node 38, N
        115     6.33075976562E+003                                                     F               0         Blade 1 X force, node 39, N
        116    -3.53934234619E+002                                                     F               0         Blade 1 Y force, node 39, N
        117    -4.43107177734E+003                                                     F               0         Blade 1 Z force, node 39, N
        118     5.20423632812E+003                                                     F               0         Blade 1 X force, node 40, N
        119    -2.83919219971E+002                                                     F               0         Blade 1 Y force, node 40, N
        120    -3.58048510742E+003                                                     F               0         Blade 1 Z force, node 40, N
        121     7.07178515625E+003                                                     F               0         Blade 1 X force, node 41, N
        122    -3.74762084961E+002                                                     F               0         Blade 1 Y force, node 41, N
        123    -4.76786425781E+003                                                     F               0         Blade 1 Z force, node 41, N
        124     5.92082861328E+003                                                     F               0         Blade 1 X force, node 42, N
        125    -3.05011413574E+002                                                     F               0         Blade 1 Y force, node 42, N
        126    -3.91456909180E+003                                                     F               0         Blade 1 Z force, node 42, N
        127     5.76966601562E+003                                                     F               0         Blade 1 X force, node 43, N
        128    -2.88856567383E+002                                                     F               0         Blade 1 Y force, node 43, N
        129    -3.74075415039E+003                                                     F               0         Blade 1 Z force, node 43, N
        130     5.64450878906E+003                                                     F               0         Blade 1 X force, node 44, N
        131    -2.74199737549E+002                                                     F               0         Blade 1 Y force, node 44, N
        132    -3.58553051758E+003                                                     F               0         Blade 1 Z force, node 44, N
        133     5.41809033203E+003                                                     F               0         Blade 1 X force, node 45, N
        134    -2.55694442749E+002                                                     F               0         Blade 1 Y force, node 45, N