
Linearized model: Predictions were generated on 07-Feb-2024 at 11:38:03 using OpenFAST, compiled as a 64-bit application using single precision at commit v3.5.1
 linked with  NWTC Subroutine Library; ElastoDyn; InflowWind; AeroDyn; ServoDyn; HydroDyn; MAP++ (<1.20.10>, <Oct-20-2023>)

Description from the FAST input file: CCT-9 Campign 4 model. Input files to be run with OpenFAST 3.5.0. GitHub branch from Lu Wang (https://github.com/luwang00/openfast/tree/dev) compiled on March 7, 2023.

Simulation information:
   Simulation time:                  1003.7500 s
   Rotor Speed:                         1.0401 rad/s
   Azimuth:                             4.9477 rad
   Wind Speed:                         12.0000 m/s
   Number of continuous states:         0
   Number of discrete states:           0
   Number of constraint states:         0
   Number of inputs:                 1746
   Number of outputs:                   4
   Jacobians included in this file?    No

Order of inputs:
     Column   Operating Point                     Rotating Frame? Derivative Order Description
   ---------- ---------------                     --------------- ---------------- -----------
          1    1.514E+01                                 F               0         Tower X translation displacement, node 1, m
          2   -1.122E+00                                 F               0         Tower Y translation displacement, node 1, m
          3   -5.053E-01                                 F               0         Tower Z translation displacement, node 1, m
          4    1.707E+01                                 F               0         Tower X translation displacement, node 2, m
          5   -1.733E+00                                 F               0         Tower Y translation displacement, node 2, m
          6   -6.724E-01                                 F               0         Tower Z translation displacement, node 2, m
          7    1.904E+01                                 F               0         Tower X translation displacement, node 3, m
          8   -2.350E+00                                 F               0         Tower Y translation displacement, node 3, m
          9   -8.453E-01                                 F               0         Tower Z translation displacement, node 3, m
         10    2.103E+01                                 F               0         Tower X translation displacement, node 4, m
         11   -2.971E+00                                 F               0         Tower Y translation displacement, node 4, m
         12   -1.023E+00                                 F               0         Tower Z translation displacement, node 4, m
         13    2.304E+01                                 F               0         Tower X translation displacement, node 5, m
         14   -3.597E+00                                 F               0         Tower Y translation displacement, node 5, m
         15   -1.204E+00                                 F               0         Tower Z translation displacement, node 5, m
         16    2.507E+01                                 F               0         Tower X translation displacement, node 6, m
         17   -4.226E+00                                 F               0         Tower Y translation displacement, node 6, m
         18   -1.388E+00                                 F               0         Tower Z translation displacement, node 6, m
         19    2.712E+01                                 F               0         Tower X translation displacement, node 7, m
         20   -4.858E+00                                 F               0         Tower Y translation displacement, node 7, m
         21   -1.575E+00                                 F               0         Tower Z translation displacement, node 7, m
         22    2.918E+01                                 F               0         Tower X translation displacement, node 8, m
         23   -5.492E+00                                 F               0         Tower Y translation displacement, node 8, m
         24   -1.764E+00                                 F               0         Tower Z translation displacement, node 8, m
         25    3.124E+01                                 F               0         Tower X translation displacement, node 9, m
         26   -6.128E+00                                 F               0         Tower Y translation displacement, node 9, m
         27   -1.955E+00                                 F               0         Tower Z translation displacement, node 9, m
         28    3.331E+01                                 F               0         Tower X translation displacement, node 10, m
         29   -6.765E+00                                 F               0         Tower Y translation displacement, node 10, m
         30   -2.146E+00                                 F               0         Tower Z translation displacement, node 10, m
         31    3.538E+01                                 F               0         Tower X translation displacement, node 11, m
         32   -7.403E+00                                 F               0         Tower Y translation displacement, node 11, m
         33   -2.338E+00                                 F               0         Tower Z translation displacement, node 11, m
         34    9.879E-01,  1.356E-02, -1.547E-01         F               0         Tower X orientation angle, node 1, rad
         35   -5.761E-03,  9.987E-01,  5.074E-02         F               0         Tower Y orientation angle, node 1, rad
         36    1.552E-01, -4.923E-02,  9.867E-01         F               0         Tower Z orientation angle, node 1, rad
         37    9.875E-01,  1.369E-02, -1.573E-01         F               0         Tower X orientation angle, node 2, rad
         38   -5.684E-03,  9.987E-01,  5.123E-02         F               0         Tower Y orientation angle, node 2, rad
         39    1.578E-01, -4.969E-02,  9.862E-01         F               0         Tower Z orientation angle, node 2, rad
         40    9.871E-01,  1.380E-02, -1.596E-01         F               0         Tower X orientation angle, node 3, rad
         41   -5.614E-03,  9.986E-01,  5.166E-02         F               0         Tower Y orientation angle, node 3, rad
         42    1.601E-01, -5.010E-02,  9.858E-01         F               0         Tower Z orientation angle, node 3, rad
         43    9.868E-01,  1.390E-02, -1.615E-01         F               0         Tower X orientation angle, node 4, rad
         44   -5.551E-03,  9.986E-01,  5.205E-02         F               0         Tower Y orientation angle, node 4, rad
         45    1.620E-01, -5.046E-02,  9.855E-01         F               0         Tower Z orientation angle, node 4, rad
         46    9.865E-01,  1.399E-02, -1.632E-01         F               0         Tower X orientation angle, node 5, rad
         47   -5.497E-03,  9.986E-01,  5.237E-02         F               0         Tower Y orientation angle, node 5, rad
         48    1.637E-01, -5.077E-02,  9.852E-01         F               0         Tower Z orientation angle, node 5, rad
         49    9.863E-01,  1.406E-02, -1.645E-01         F               0         Tower X orientation angle, node 6, rad
         50   -5.451E-03,  9.986E-01,  5.265E-02         F               0         Tower Y orientation angle, node 6, rad
         51    1.650E-01, -5.103E-02,  9.850E-01         F               0         Tower Z orientation angle, node 6, rad
         52    9.861E-01,  1.411E-02, -1.655E-01         F               0         Tower X orientation angle, node 7, rad
         53   -5.414E-03,  9.986E-01,  5.287E-02         F               0         Tower Y orientation angle, node 7, rad
         54    1.661E-01, -5.124E-02,  9.848E-01         F               0         Tower Z orientation angle, node 7, rad
         55    9.860E-01,  1.415E-02, -1.663E-01         F               0         Tower X orientation angle, node 8, rad
         56   -5.386E-03,  9.986E-01,  5.304E-02         F               0         Tower Y orientation angle, node 8, rad
         57    1.668E-01, -5.140E-02,  9.846E-01         F               0         Tower Z orientation angle, node 8, rad
         58    9.859E-01,  1.418E-02, -1.669E-01         F               0         Tower X orientation angle, node 9, rad
         59   -5.365E-03,  9.986E-01,  5.317E-02         F               0         Tower Y orientation angle, node 9, rad
         60    1.674E-01, -5.152E-02,  9.845E-01         F               0         Tower Z orientation angle, node 9, rad
         61    9.858E-01,  1.420E-02, -1.672E-01         F               0         Tower X orientation angle, node 10, rad
         62   -5.351E-03,  9.986E-01,  5.325E-02         F               0         Tower Y orientation angle, node 10, rad
         63    1.677E-01, -5.160E-02,  9.845E-01         F               0         Tower Z orientation angle, node 10, rad
         64    9.858E-01,  1.421E-02, -1.674E-01         F               0         Tower X orientation angle, node 11, rad
         65   -5.343E-03,  9.986E-01,  5.329E-02         F               0         Tower Y orientation angle, node 11, rad
         66    1.679E-01, -5.164E-02,  9.845E-01         F               0         Tower Z orientation angle, node 11, rad
         67   -2.670E-03                                 F               0         Tower X translation velocity, node 1, m/s
         68   -2.787E-02                                 F               0         Tower Y translation velocity, node 1, m/s
         69    1.096E-04                                 F               0         Tower Z translation velocity, node 1, m/s
         70   -3.776E-03                                 F               0         Tower X translation velocity, node 2, m/s
         71   -4.641E-02                                 F               0         Tower Y translation velocity, node 2, m/s
         72   -6.442E-04                                 F               0         Tower Z translation velocity, node 2, m/s
         73   -4.938E-03                                 F               0         Tower X translation velocity, node 3, m/s
         74   -6.521E-02                                 F               0         Tower Y translation velocity, node 3, m/s
         75   -1.408E-03                                 F               0         Tower Z translation velocity, node 3, m/s
         76   -6.142E-03                                 F               0         Tower X translation velocity, node 4, m/s
         77   -8.422E-02                                 F               0         Tower Y translation velocity, node 4, m/s
         78   -2.182E-03                                 F               0         Tower Z translation velocity, node 4, m/s
         79   -7.377E-03                                 F               0         Tower X translation velocity, node 5, m/s
         80   -1.034E-01                                 F               0         Tower Y translation velocity, node 5, m/s
         81   -2.963E-03                                 F               0         Tower Z translation velocity, node 5, m/s
         82   -8.634E-03                                 F               0         Tower X translation velocity, node 6, m/s
         83   -1.227E-01                                 F               0         Tower Y translation velocity, node 6, m/s
         84   -3.752E-03                                 F               0         Tower Z translation velocity, node 6, m/s
         85   -9.906E-03                                 F               0         Tower X translation velocity, node 7, m/s
         86   -1.422E-01                                 F               0         Tower Y translation velocity, node 7, m/s
         87   -4.548E-03                                 F               0         Tower Z translation velocity, node 7, m/s
         88   -1.119E-02                                 F               0         Tower X translation velocity, node 8, m/s
         89   -1.617E-01                                 F               0         Tower Y translation velocity, node 8, m/s
         90   -5.349E-03                                 F               0         Tower Z translation velocity, node 8, m/s
         91   -1.247E-02                                 F               0         Tower X translation velocity, node 9, m/s
         92   -1.813E-01                                 F               0         Tower Y translation velocity, node 9, m/s
         93   -6.156E-03                                 F               0         Tower Z translation velocity, node 9, m/s
         94   -1.376E-02                                 F               0         Tower X translation velocity, node 10, m/s
         95   -2.010E-01                                 F               0         Tower Y translation velocity, node 10, m/s
         96   -6.966E-03                                 F               0         Tower Z translation velocity, node 10, m/s
         97   -1.505E-02                                 F               0         Tower X translation velocity, node 11, m/s
         98   -2.207E-01                                 F               0         Tower Y translation velocity, node 11, m/s
         99   -7.779E-03                                 F               0         Tower Z translation velocity, node 11, m/s
        100    3.686E+01                                 F               0         Hub X translation displacement, node 1, m
        101   -7.961E+00                                 F               0         Hub Y translation displacement, node 1, m
        102   -6.522E-01                                 F               0         Hub Z translation displacement, node 1, m
        103    9.628E-01,  1.953E-02, -2.694E-01         F               0         Hub X orientation angle, node 1, rad
        104   -2.638E-01,  2.813E-01, -9.227E-01         F               0         Hub Y orientation angle, node 1, rad
        105    5.775E-02,  9.594E-01,  2.760E-01         F               0         Hub Z orientation angle, node 1, rad
        106    1.003E+00                                 F               0         Hub X rotation velocity, node 1, rad/s
        107    2.022E-02                                 F               0         Hub Y rotation velocity, node 1, rad/s
        108   -2.804E-01                                 F               0         Hub Z rotation velocity, node 1, rad/s
        109    9.702E-01,  1.117E-02, -2.419E-01         F               0         Blade root 1 X orientation angle, node 1, rad
        110   -2.351E-01,  2.817E-01, -9.302E-01         F               0         Blade root 1 Y orientation angle, node 1, rad
        111    5.775E-02,  9.594E-01,  2.760E-01         F               0         Blade root 1 Z orientation angle, node 1, rad
        112    9.570E-01, -9.587E-04, -2.900E-01         F               0         Blade root 2 X orientation angle, node 1, rad
        113    2.104E-01,  6.905E-01,  6.920E-01         F               0         Blade root 2 Y orientation angle, node 1, rad
        114    1.996E-01, -7.233E-01,  6.611E-01         F               0         Blade root 2 Z orientation angle, node 1, rad
        115    9.600E-01,  4.834E-02, -2.758E-01         F               0         Blade root 3 X orientation angle, node 1, rad
        116    1.104E-01, -9.705E-01,  2.142E-01         F               0         Blade root 3 Y orientation angle, node 1, rad
        117   -2.573E-01, -2.361E-01, -9.370E-01         F               0         Blade root 3 Z orientation angle, node 1, rad
        118    3.660E+01                                 F               0         Blade 1 X translation displacement, node 1, m
        119   -2.646E+00                                 F               0         Blade 1 Y translation displacement, node 1, m
        120   -4.633E+00                                 F               0         Blade 1 Z translation displacement, node 1, m
        121    3.653E+01                                 F               0         Blade 1 X translation displacement, node 2, m
        122   -1.365E+00                                 F               0         Blade 1 Y translation displacement, node 2, m
        123   -5.592E+00                                 F               0         Blade 1 Z translation displacement, node 2, m
        124    3.568E+01                                 F               0         Blade 1 X translation displacement, node 3, m
        125    1.605E+01                                 F               0         Blade 1 Y translation displacement, node 3, m
        126   -1.864E+01                                 F               0         Blade 1 Z translation displacement, node 3, m
        127    3.550E+01                                 F               0         Blade 1 X translation displacement, node 4, m
        128    1.976E+01                                 F               0         Blade 1 Y translation displacement, node 4, m
        129   -2.141E+01                                 F               0         Blade 1 Z translation displacement, node 4, m
        130    3.532E+01                                 F               0         Blade 1 X translation displacement, node 5, m
        131    2.347E+01                                 F               0         Blade 1 Y translation displacement, node 5, m
        132   -2.419E+01                                 F               0         Blade 1 Z translation displacement, node 5, m
        133    3.514E+01                                 F               0         Blade 1 X translation displacement, node 6, m
        134    2.718E+01                                 F               0         Blade 1 Y translation displacement, node 6, m
        135   -2.697E+01                                 F               0         Blade 1 Z translation displacement, node 6, m
        136    3.496E+01                                 F               0         Blade 1 X translation displacement, node 7, m
        137    3.089E+01                                 F               0         Blade 1 Y translation displacement, node 7, m
        138   -2.975E+01                                 F               0         Blade 1 Z translation displacement, node 7, m
        139    3.478E+01                                 F               0         Blade 1 X translation displacement, node 8, m
        140    3.460E+01                                 F               0         Blade 1 Y translation displacement, node 8, m
        141   -3.253E+01                                 F               0         Blade 1 Z translation displacement, node 8, m
        142    3.460E+01                                 F               0         Blade 1 X translation displacement, node 9, m
        143    3.832E+01                                 F               0         Blade 1 Y translation displacement, node 9, m
        144   -3.531E+01                                 F               0         Blade 1 Z translation displacement, node 9, m
        145    3.442E+01                                 F               0         Blade 1 X translation displacement, node 10, m
        146    4.203E+01                                 F               0         Blade 1 Y translation displacement, node 10, m
        147   -3.809E+01                                 F               0         Blade 1 Z translation displacement, node 10, m
        148    3.424E+01                                 F               0         Blade 1 X translation displacement, node 11, m
        149    4.574E+01                                 F               0         Blade 1 Y translation displacement, node 11, m
        150   -4.087E+01                                 F               0         Blade 1 Z translation displacement, node 11, m
        151    3.406E+01                                 F               0         Blade 1 X translation displacement, node 12, m
        152    4.945E+01                                 F               0         Blade 1 Y translation displacement, node 12, m
        153   -4.365E+01                                 F               0         Blade 1 Z translation displacement, node 12, m
        154    3.388E+01                                 F               0         Blade 1 X translation displacement, node 13, m
        155    5.316E+01                                 F               0         Blade 1 Y translation displacement, node 13, m
        156   -4.643E+01                                 F               0         Blade 1 Z translation displacement, node 13, m
        157    3.369E+01                                 F               0         Blade 1 X translation displacement, node 14, m
        158    5.687E+01                                 F               0         Blade 1 Y translation displacement, node 14, m
        159   -4.921E+01                                 F               0         Blade 1 Z translation displacement, node 14, m
        160    3.351E+01                                 F               0         Blade 1 X translation displacement, node 15, m
        161    6.058E+01                                 F               0         Blade 1 Y translation displacement, node 15, m
        162   -5.199E+01                                 F               0         Blade 1 Z translation displacement, node 15, m
        163    3.333E+01                                 F               0         Blade 1 X translation displacement, node 16, m
        164    6.429E+01                                 F               0         Blade 1 Y translation displacement, node 16, m
        165   -5.476E+01                                 F               0         Blade 1 Z translation displacement, node 16, m
        166    3.315E+01                                 F               0         Blade 1 X translation displacement, node 17, m
        167    6.800E+01                                 F               0         Blade 1 Y translation displacement, node 17, m
        168   -5.754E+01                                 F               0         Blade 1 Z translation displacement, node 17, m
        169    3.297E+01                                 F               0         Blade 1 X translation displacement, node 18, m
        170    7.171E+01                                 F               0         Blade 1 Y translation displacement, node 18, m
        171   -6.032E+01                                 F               0         Blade 1 Z translation displacement, node 18, m
        172    3.279E+01                                 F               0         Blade 1 X translation displacement, node 19, m
        173    7.542E+01                                 F               0         Blade 1 Y translation displacement, node 19, m
        174   -6.310E+01                                 F               0         Blade 1 Z translation displacement, node 19, m
        175    3.261E+01                                 F               0         Blade 1 X translation displacement, node 20, m
        176    7.913E+01                                 F               0         Blade 1 Y translation displacement, node 20, m
        177   -6.588E+01                                 F               0         Blade 1 Z translation displacement, node 20, m
        178    3.243E+01                                 F               0         Blade 1 X translation displacement, node 21, m
        179    8.284E+01                                 F               0         Blade 1 Y translation displacement, node 21, m
        180   -6.866E+01                                 F               0         Blade 1 Z translation displacement, node 21, m
        181    3.225E+01                                 F               0         Blade 1 X translation displacement, node 22, m
        182    8.656E+01                                 F               0         Blade 1 Y translation displacement, node 22, m
        183   -7.144E+01                                 F               0         Blade 1 Z translation displacement, node 22, m
        184    3.207E+01                                 F               0         Blade 1 X translation displacement, node 23, m
        185    9.027E+01                                 F               0         Blade 1 Y translation displacement, node 23, m
        186   -7.422E+01                                 F               0         Blade 1 Z translation displacement, node 23, m
        187    3.188E+01                                 F               0         Blade 1 X translation displacement, node 24, m
        188    9.398E+01                                 F               0         Blade 1 Y translation displacement, node 24, m
        189   -7.700E+01                                 F               0         Blade 1 Z translation displacement, node 24, m
        190    3.170E+01                                 F               0         Blade 1 X translation displacement, node 25, m
        191    9.769E+01                                 F               0         Blade 1 Y translation displacement, node 25, m
        192   -7.978E+01                                 F               0         Blade 1 Z translation displacement, node 25, m
        193    3.152E+01                                 F               0         Blade 1 X translation displacement, node 26, m
        194    1.014E+02                                 F               0         Blade 1 Y translation displacement, node 26, m
        195   -8.256E+01                                 F               0         Blade 1 Z translation displacement, node 26, m
        196    3.134E+01                                 F               0         Blade 1 X translation displacement, node 27, m
        197    1.051E+02                                 F               0         Blade 1 Y translation displacement, node 27, m
        198   -8.533E+01                                 F               0         Blade 1 Z translation displacement, node 27, m
        199    3.119E+01                                 F               0         Blade 1 X translation displacement, node 28, m
        200    1.083E+02                                 F               0         Blade 1 Y translation displacement, node 28, m
        201   -8.769E+01                                 F               0         Blade 1 Z translation displacement, node 28, m
        202    9.707E-01, -1.185E-01,  2.089E-01         F               0         Blade 1 X orientation angle, node 1, rad
        203    2.332E-01,  2.558E-01, -9.382E-01         F               0         Blade 1 Y orientation angle, node 1, rad
        204    5.775E-02,  9.594E-01,  2.760E-01         F               0         Blade 1 Z orientation angle, node 1, rad
        205    9.707E-01, -1.185E-01,  2.089E-01         F               0         Blade 1 X orientation angle, node 2, rad
        206    2.332E-01,  2.558E-01, -9.382E-01         F               0         Blade 1 Y orientation angle, node 2, rad
        207    5.775E-02,  9.594E-01,  2.760E-01         F               0         Blade 1 Z orientation angle, node 2, rad
        208    9.983E-01, -5.452E-02, -1.936E-02         F               0         Blade 1 X orientation angle, node 3, rad
        209   -3.533E-03,  2.766E-01, -9.610E-01         F               0         Blade 1 Y orientation angle, node 3, rad
        210    5.775E-02,  9.594E-01,  2.760E-01         F               0         Blade 1 Z orientation angle, node 3, rad
        211    9.973E-01, -4.279E-02, -5.992E-02         F               0         Blade 1 X orientation angle, node 4, rad
        212   -4.568E-02,  2.787E-01, -9.593E-01         F               0         Blade 1 Y orientation angle, node 4, rad
        213    5.775E-02,  9.594E-01,  2.760E-01         F               0         Blade 1 Z orientation angle, node 4, rad
        214    9.952E-01, -3.352E-02, -9.170E-02         F               0         Blade 1 X orientation angle, node 5, rad
        215   -7.872E-02,  2.800E-01, -9.568E-01         F               0         Blade 1 Y orientation angle, node 5, rad
        216    5.775E-02,  9.594E-01,  2.760E-01         F               0         Blade 1 Z orientation angle, node 5, rad
        217    9.928E-01, -2.609E-02, -1.170E-01         F               0         Blade 1 X orientation angle, node 6, rad
        218   -1.051E-01,  2.807E-01, -9.540E-01         F               0         Blade 1 Y orientation angle, node 6, rad
        219    5.775E-02,  9.594E-01,  2.760E-01         F               0         Blade 1 Z orientation angle, node 6, rad
        220    9.903E-01, -1.996E-02, -1.378E-01         F               0         Blade 1 X orientation angle, node 7, rad
        221   -1.267E-01,  2.812E-01, -9.512E-01         F               0         Blade 1 Y orientation angle, node 7, rad
        222    5.775E-02,  9.594E-01,  2.760E-01         F               0         Blade 1 Z orientation angle, node 7, rad
        223    9.878E-01, -1.485E-02, -1.551E-01         F               0         Blade 1 X orientation angle, node 8, rad
        224   -1.447E-01,  2.816E-01, -9.486E-01         F               0         Blade 1 Y orientation angle, node 8, rad
        225    5.775E-02,  9.594E-01,  2.760E-01         F               0         Blade 1 Z orientation angle, node 8, rad
        226    9.855E-01, -1.052E-02, -1.696E-01         F               0         Blade 1 X orientation angle, node 9, rad
        227   -1.598E-01,  2.818E-01, -9.461E-01         F               0         Blade 1 Y orientation angle, node 9, rad