
Linearized model: Predictions were generated on 13-Feb-2024 at 12:12:09 using OpenFAST, compiled as a 64-bit application using single precision at commit v3.5.1
 linked with  NWTC Subroutine Library; ElastoDyn; InflowWind; AeroDyn; ServoDyn; HydroDyn; MAP++ (<1.20.10>, <Oct-20-2023>)

Description from the FAST input file: CCT-9 Campign 4 model. Input files to be run with OpenFAST 3.5.0. GitHub branch from Lu Wang (https://github.com/luwang00/openfast/tree/dev) compiled on March 7, 2023.

Simulation information:
   Simulation time:                   775.7500 s
   Rotor Speed:                         0.7917 rad/s
   Azimuth:                             4.2084 rad
   Wind Speed:                         24.0000 m/s
   Number of continuous states:         0
   Number of discrete states:           0
   Number of constraint states:         0
   Number of inputs:                 1746
   Number of outputs:                   4
   Jacobians included in this file?    No

Order of inputs:
     Column   Operating Point                                                   Rotating Frame? Derivative Order Description
   ---------- ---------------                                                   --------------- ---------------- -----------
          1     8.55321693420E+000                                                     F               0         Tower X translation displacement, node 1, m
          2    -1.82219898701E+000                                                     F               0         Tower Y translation displacement, node 1, m
          3    -2.20338344574E-001                                                     F               0         Tower Z translation displacement, node 1, m
          4     9.72617340088E+000                                                     F               0         Tower X translation displacement, node 2, m
          5    -2.49797821045E+000                                                     F               0         Tower Y translation displacement, node 2, m
          6    -2.94726043940E-001                                                     F               0         Tower Z translation displacement, node 2, m
          7     1.09177036285E+001                                                     F               0         Tower X translation displacement, node 3, m
          8    -3.18175816536E+000                                                     F               0         Tower Y translation displacement, node 3, m
          9    -3.71340781450E-001                                                     F               0         Tower Z translation displacement, node 3, m
         10     1.21231651306E+001                                                     F               0         Tower X translation displacement, node 4, m
         11    -3.87211942673E+000                                                     F               0         Tower Y translation displacement, node 4, m
         12    -4.49683755636E-001                                                     F               0         Tower Z translation displacement, node 4, m
         13     1.33399772644E+001                                                     F               0         Tower X translation displacement, node 5, m
         14    -4.56842756271E+000                                                     F               0         Tower Y translation displacement, node 5, m
         15    -5.29479324818E-001                                                     F               0         Tower Z translation displacement, node 5, m
         16     1.45657272339E+001                                                     F               0         Tower X translation displacement, node 6, m
         17    -5.27001094818E+000                                                     F               0         Tower Y translation displacement, node 6, m
         18    -6.10475420952E-001                                                     F               0         Tower Z translation displacement, node 6, m
         19     1.57978067398E+001                                                     F               0         Tower X translation displacement, node 7, m
         20    -5.97582912445E+000                                                     F               0         Tower Y translation displacement, node 7, m
         21    -6.92333698273E-001                                                     F               0         Tower Z translation displacement, node 7, m
         22     1.70349884033E+001                                                     F               0         Tower X translation displacement, node 8, m
         23    -6.68554496765E+000                                                     F               0         Tower Y translation displacement, node 8, m
         24    -7.74942100048E-001                                                     F               0         Tower Z translation displacement, node 8, m
         25     1.82756385803E+001                                                     F               0         Tower X translation displacement, node 9, m
         26    -7.39835071564E+000                                                     F               0         Tower Y translation displacement, node 9, m
         27    -8.58070492744E-001                                                     F               0         Tower Z translation displacement, node 9, m
         28     1.95184211731E+001                                                     F               0         Tower X translation displacement, node 10, m
         29    -8.11339092255E+000                                                     F               0         Tower Y translation displacement, node 10, m
         30    -9.41550970078E-001                                                     F               0         Tower Z translation displacement, node 10, m
         31     2.07622680664E+001                                                     F               0         Tower X translation displacement, node 11, m
         32    -8.82982826233E+000                                                     F               0         Tower Y translation displacement, node 11, m
         33    -1.02521777153E+000                                                     F               0         Tower Z translation displacement, node 11, m
         34     9.95470523834E-001,  -6.68040337041E-003,  -9.48354154825E-002         F               0         Tower X orientation angle, node 1, rad
         35     1.18043655530E-002,   9.98494207859E-001,   5.35723306239E-002         F               0         Tower Y orientation angle, node 1, rad
         36     9.43347290158E-002,  -5.44491484761E-002,   9.94050443172E-001         F               0         Tower Z orientation angle, node 1, rad
         37     9.95334267616E-001,  -6.60191662610E-003,  -9.62603613734E-002         F               0         Tower X orientation angle, node 2, rad
         38     1.18604088202E-002,   9.98461902142E-001,   5.41584230959E-002         F               0         Tower Y orientation angle, node 2, rad
         39     9.57547500730E-002,  -5.50474226475E-002,   9.93881702423E-001         F               0         Tower Z orientation angle, node 2, rad
         40     9.95214343071E-001,  -6.53303833678E-003,  -9.74971726537E-002         F               0         Tower X orientation angle, node 3, rad
         41     1.19131393731E-002,   9.98431622982E-001,   5.47024607658E-002         F               0         Tower Y orientation angle, node 3, rad
         42     9.69868898392E-002,  -5.56021705270E-002,   9.93731319904E-001         F               0         Tower Z orientation angle, node 3, rad
         43     9.95113313198E-001,  -6.47508120164E-003,  -9.85268130898E-002         F               0         Tower X orientation angle, node 4, rad
         44     1.19617823511E-002,   9.98403728008E-001,   5.51990233362E-002         F               0         Tower Y orientation angle, node 4, rad
         45     9.80121195316E-002,  -5.61078414321E-002,   9.93602275848E-001         F               0         Tower Z orientation angle, node 4, rad
         46     9.95030939579E-001,  -6.42776489258E-003,  -9.93586406112E-002         F               0         Tower X orientation angle, node 5, rad
         47     1.20059261099E-002,   9.98378396034E-001,   5.56461513042E-002         F               0         Tower Y orientation angle, node 5, rad
         48     9.88398417830E-002,  -5.65625317395E-002,   9.93494510651E-001         F               0         Tower Z orientation angle, node 5, rad
         49     9.94966149330E-001,  -6.39045704156E-003,  -1.00007705390E-001         F               0         Tower X orientation angle, node 6, rad
         50     1.20450882241E-002,   9.98355805874E-001,   5.60407377779E-002         F               0         Tower Y orientation angle, node 6, rad
         51     9.94851514697E-002,  -5.69632388651E-002,   9.93407189846E-001         F               0         Tower Z orientation angle, node 6, rad
         52     9.94918584824E-001,  -6.36293133721E-003,  -1.00481413305E-001         F               0         Tower X orientation angle, node 7, rad
         53     1.20782591403E-002,   9.98336672783E-001,   5.63739761710E-002         F               0         Tower Y orientation angle, node 7, rad
         54     9.99555736780E-002,  -5.73011562228E-002,   9.93340551853E-001         F               0         Tower Z orientation angle, node 7, rad
         55     9.94884788990E-001,  -6.34322175756E-003,  -1.00817017257E-001         F               0         Tower X orientation angle, node 8, rad
         56     1.21054025367E-002,   9.98320937157E-001,   5.66462874413E-002         F               0         Tower Y orientation angle, node 8, rad
         57     1.00288420916E-001,  -5.75769580901E-002,   9.93291079998E-001         F               0         Tower Z orientation angle, node 8, rad
         58     9.94862496853E-001,  -6.33012689650E-003,  -1.01037584245E-001         F               0         Tower X orientation angle, node 9, rad
         59     1.21261114255E-002,   9.98308837414E-001,   5.68540059030E-002         F               0         Tower Y orientation angle, node 9, rad
         60     1.00506827235E-001,  -5.77871128917E-002,   9.93256807327E-001         F               0         Tower Z orientation angle, node 9, rad
         61     9.94849503040E-001,  -6.32244814187E-003,  -1.01165480912E-001         F               0         Tower X orientation angle, node 10, rad
         62     1.21400821954E-002,   9.98300671577E-001,   5.69942444563E-002         F               0         Tower Y orientation angle, node 10, rad
         63     1.00633226335E-001,  -5.79288527369E-002,   9.93235707283E-001         F               0         Tower Z orientation angle, node 10, rad
         64     9.94843304157E-001,  -6.31873169914E-003,  -1.01226665080E-001         F               0         Tower X orientation angle, node 11, rad
         65     1.21478755027E-002,   9.98296141624E-001,   5.70725798607E-002         F               0         Tower Y orientation angle, node 11, rad
         66     1.00693561137E-001,  -5.80079630017E-002,   9.93224978447E-001         F               0         Tower Z orientation angle, node 11, rad
         67    -7.09844147786E-003                                                     F               0         Tower X translation velocity, node 1, m/s
         68     7.50682549551E-004                                                     F               0         Tower Y translation velocity, node 1, m/s
         69    -3.35714081302E-003                                                     F               0         Tower Z translation velocity, node 1, m/s
         70    -9.46756545454E-003                                                     F               0         Tower X translation velocity, node 2, m/s
         71     7.10902444553E-004                                                     F               0         Tower Y translation velocity, node 2, m/s
         72    -3.13322804868E-003                                                     F               0         Tower Z translation velocity, node 2, m/s
         73    -1.06022171676E-002                                                     F               0         Tower X translation velocity, node 3, m/s
         74     8.13951774035E-004                                                     F               0         Tower Y translation velocity, node 3, m/s
         75    -3.01739573479E-003                                                     F               0         Tower Z translation velocity, node 3, m/s
         76    -1.06557579711E-002                                                     F               0         Tower X translation velocity, node 4, m/s
         77     1.02520617656E-003                                                     F               0         Tower Y translation velocity, node 4, m/s
         78    -3.00027616322E-003                                                     F               0         Tower Z translation velocity, node 4, m/s
         79    -9.67191532254E-003                                                     F               0         Tower X translation velocity, node 5, m/s
         80     1.32567342371E-003                                                     F               0         Tower Y translation velocity, node 5, m/s
         81    -3.08077642694E-003                                                     F               0         Tower Z translation velocity, node 5, m/s
         82    -7.71162193269E-003                                                     F               0         Tower X translation velocity, node 6, m/s
         83     1.69751478825E-003                                                     F               0         Tower Y translation velocity, node 6, m/s
         84    -3.25530394912E-003                                                     F               0         Tower Z translation velocity, node 6, m/s
         85    -4.92524309084E-003                                                     F               0         Tower X translation velocity, node 7, m/s
         86     2.12083756924E-003                                                     F               0         Tower Y translation velocity, node 7, m/s
         87    -3.51065467112E-003                                                     F               0         Tower Z translation velocity, node 7, m/s
         88    -1.34020950645E-003                                                     F               0         Tower X translation velocity, node 8, m/s
         89     2.58669676259E-003                                                     F               0         Tower Y translation velocity, node 8, m/s
         90    -3.84504674003E-003                                                     F               0         Tower Z translation velocity, node 8, m/s
         91     2.90977512486E-003                                                     F               0         Tower X translation velocity, node 9, m/s
         92     3.08249867521E-003                                                     F               0         Tower Y translation velocity, node 9, m/s
         93    -4.24580648541E-003                                                     F               0         Tower Z translation velocity, node 9, m/s
         94     7.66510656103E-003                                                     F               0         Tower X translation velocity, node 10, m/s
         95     3.59772494994E-003                                                     F               0         Tower Y translation velocity, node 10, m/s
         96    -4.69726091251E-003                                                     F               0         Tower Z translation velocity, node 10, m/s
         97     1.27524640411E-002                                                     F               0         Tower X translation velocity, node 11, m/s
         98     4.12426376715E-003                                                     F               0         Tower Y translation velocity, node 11, m/s
         99    -5.18203573301E-003                                                     F               0         Tower Z translation velocity, node 11, m/s
        100     2.16084251404E+001                                                     F               0         Hub X translation displacement, node 1, m
        101    -9.21695613861E+000                                                     F               0         Hub Y translation displacement, node 1, m
        102     1.49019137025E-002                                                     F               0         Hub Z translation displacement, node 1, m
        103     9.78868126869E-001,  -2.20633679419E-004,  -2.04492419958E-001         F               0         Hub X orientation angle, node 1, rad
        104    -1.84614047408E-001,  -4.31032598019E-001,  -8.83248865604E-001         F               0         Hub Y orientation angle, node 1, rad
        105    -8.79480242729E-002,   9.02336299419E-001,  -4.21964824200E-001         F               0         Hub Z orientation angle, node 1, rad
        106     7.74960100651E-001                                                     F               0         Hub X rotation velocity, node 1, rad/s
        107     2.43594549829E-004                                                     F               0         Hub Y rotation velocity, node 1, rad/s
        108    -1.61867365241E-001                                                     F               0         Hub Z rotation velocity, node 1, rad/s
        109     9.90276336670E-001,   1.25036358833E-001,   6.09813742340E-002         F               0         Blade root 1 X orientation angle, node 1, rad
        110     1.07786655426E-001,  -4.12498563528E-001,  -9.04559016228E-001         F               0         Blade root 1 Y orientation angle, node 1, rad
        111    -8.79480242729E-002,   9.02336299419E-001,  -4.21964824200E-001         F               0         Blade root 1 Z orientation angle, node 1, rad
        112     9.31941628456E-001,  -2.89903879166E-001,  -2.17808574438E-001         F               0         Blade root 2 X orientation angle, node 1, rad
        113     2.99880295992E-001,   9.53881561756E-001,   1.34841864929E-002         F               0         Blade root 2 Y orientation angle, node 1, rad
        114     2.03854456544E-001,  -7.78829753399E-002,   9.75898385048E-001         F               0         Blade root 2 Z orientation angle, node 1, rad
        115     8.87678146362E-001,   1.64234176278E-001,  -4.30179804564E-001         F               0         Blade root 3 X orientation angle, node 1, rad
        116     4.45638000965E-001,  -5.41575312614E-001,   7.12813436985E-001         F               0         Blade root 3 Y orientation angle, node 1, rad
        117    -1.15906432271E-001,  -8.24453353882E-001,  -5.53933560848E-001         F               0         Blade root 3 Z orientation angle, node 1, rad
        118     2.05421047211E+001                                                     F               0         Blade 1 X translation displacement, node 1, m
        119    -4.21801280975E+000                                                     F               0         Blade 1 Y translation displacement, node 1, m
        120    -7.83244180679E+000                                                     F               0         Blade 1 Z translation displacement, node 1, m
        121     2.02851657867E+001                                                     F               0         Blade 1 X translation displacement, node 2, m
        122    -3.01347875595E+000                                                     F               0         Blade 1 Y translation displacement, node 2, m
        123    -9.72331619263E+000                                                     F               0         Blade 1 Z translation displacement, node 2, m
        124     1.67912559509E+001                                                     F               0         Blade 1 X translation displacement, node 3, m
        125     1.33660974503E+001                                                     F               0         Blade 1 Y translation displacement, node 3, m
        126    -3.54359550476E+001                                                     F               0         Blade 1 Z translation displacement, node 3, m
        127     1.60468559265E+001                                                     F               0         Blade 1 X translation displacement, node 4, m
        128     1.68558635712E+001                                                     F               0         Blade 1 Y translation displacement, node 4, m
        129    -4.09141921997E+001                                                     F               0         Blade 1 Z translation displacement, node 4, m
        130     1.53023166656E+001                                                     F               0         Blade 1 X translation displacement, node 5, m
        131     2.03462924957E+001                                                     F               0         Blade 1 Y translation displacement, node 5, m
        132    -4.63934593201E+001                                                     F               0         Blade 1 Z translation displacement, node 5, m
        133     1.45579147339E+001                                                     F               0         Blade 1 X translation displacement, node 6, m
        134     2.38360710144E+001                                                     F               0         Blade 1 Y translation displacement, node 6, m
        135    -5.18717193604E+001                                                     F               0         Blade 1 Z translation displacement, node 6, m
        136     1.38135108948E+001                                                     F               0         Blade 1 X translation displacement, node 7, m
        137     2.73258628845E+001                                                     F               0         Blade 1 Y translation displacement, node 7, m
        138    -5.73499832153E+001                                                     F               0         Blade 1 Z translation displacement, node 7, m
        139     1.30689735413E+001                                                     F               0         Blade 1 X translation displacement, node 8, m
        140     3.08162784576E+001                                                     F               0         Blade 1 Y translation displacement, node 8, m
        141    -6.28292427063E+001                                                     F               0         Blade 1 Z translation displacement, node 8, m
        142     1.23245697021E+001                                                     F               0         Blade 1 X translation displacement, node 9, m
        143     3.43060684204E+001                                                     F               0         Blade 1 Y translation displacement, node 9, m
        144    -6.83075027466E+001                                                     F               0         Blade 1 Z translation displacement, node 9, m
        145     1.15801677704E+001                                                     F               0         Blade 1 X translation displacement, node 10, m
        146     3.77958488464E+001                                                     F               0         Blade 1 Y translation displacement, node 10, m
        147    -7.37857666016E+001                                                     F               0         Blade 1 Z translation displacement, node 10, m
        148     1.08357639313E+001                                                     F               0         Blade 1 X translation displacement, node 11, m
        149     4.12856445312E+001                                                     F               0         Blade 1 Y translation displacement, node 11, m
        150    -7.92640304565E+001                                                     F               0         Blade 1 Z translation displacement, node 11, m
        151     1.00912294388E+001                                                     F               0         Blade 1 X translation displacement, node 12, m
        152     4.47760467529E+001                                                     F               0         Blade 1 Y translation displacement, node 12, m
        153    -8.47432708740E+001                                                     F               0         Blade 1 Z translation displacement, node 12, m
        154     9.34682464600E+000                                                     F               0         Blade 1 X translation displacement, node 13, m
        155     4.82658386230E+001                                                     F               0         Blade 1 Y translation displacement, node 13, m
        156    -9.02215347290E+001                                                     F               0         Blade 1 Z translation displacement, node 13, m
        157     8.60242366791E+000                                                     F               0         Blade 1 X translation displacement, node 14, m
        158     5.17556190491E+001                                                     F               0         Blade 1 Y translation displacement, node 14, m
        159    -9.56997985840E+001                                                     F               0         Blade 1 Z translation displacement, node 14, m
        160     7.85788393021E+000                                                     F               0         Blade 1 X translation displacement, node 15, m
        161     5.52460403442E+001                                                     F               0         Blade 1 Y translation displacement, node 15, m
        162    -1.01179054260E+002                                                     F               0         Blade 1 Z translation displacement, node 15, m
        163     7.11348247528E+000                                                     F               0         Blade 1 X translation displacement, node 16, m
        164     5.87358245850E+001                                                     F               0         Blade 1 Y translation displacement, node 16, m
        165    -1.06657318115E+002                                                     F               0         Blade 1 Z translation displacement, node 16, m
        166     6.36907768250E+000                                                     F               0         Blade 1 X translation displacement, node 17, m
        167     6.22256202698E+001                                                     F               0         Blade 1 Y translation displacement, node 17, m
        168    -1.12135589600E+002                                                     F               0         Blade 1 Z translation displacement, node 17, m
        169     5.62467575073E+000                                                     F               0         Blade 1 X translation displacement, node 18, m
        170     6.57154006958E+001                                                     F               0         Blade 1 Y translation displacement, node 18, m
        171    -1.17613853455E+002                                                     F               0         Blade 1 Z translation displacement, node 18, m
        172     4.88014078140E+000                                                     F               0         Blade 1 X translation displacement, node 19, m
        173     6.92058029175E+001                                                     F               0         Blade 1 Y translation displacement, node 19, m
        174    -1.23093086243E+002                                                     F               0         Blade 1 Z translation displacement, node 19, m
        175     4.13573598862E+000                                                     F               0         Blade 1 X translation displacement, node 20, m
        176     7.26955947876E+001                                                     F               0         Blade 1 Y translation displacement, node 20, m
        177    -1.28571350098E+002                                                     F               0         Blade 1 Z translation displacement, node 20, m
        178     3.39133429527E+000                                                     F               0         Blade 1 X translation displacement, node 21, m
        179     7.61853866577E+001                                                     F               0         Blade 1 Y translation displacement, node 21, m
        180    -1.34049621582E+002                                                     F               0         Blade 1 Z translation displacement, node 21, m
        181     2.64679646492E+000                                                     F               0         Blade 1 X translation displacement, node 22, m
        182     7.96757965088E+001                                                     F               0         Blade 1 Y translation displacement, node 22, m
        183    -1.39528869629E+002                                                     F               0         Blade 1 Z translation displacement, node 22, m