
Linearized model: Predictions were generated on 13-Feb-2024 at 12:12:09 using OpenFAST, compiled as a 64-bit application using single precision at commit v3.5.1
 linked with  NWTC Subroutine Library; ElastoDyn; InflowWind; AeroDyn; ServoDyn; HydroDyn; MAP++ (<1.20.10>, <Oct-20-2023>)

Description from the FAST input file: CCT-9 Campign 4 model. Input files to be run with OpenFAST 3.5.0. GitHub branch from Lu Wang (https://github.com/luwang00/openfast/tree/dev) compiled on March 7, 2023.

Simulation information:
   Simulation time:                   775.3000 s
   Rotor Speed:                         0.7916 rad/s
   Azimuth:                             3.8521 rad
   Wind Speed:                         24.0000 m/s
   Number of continuous states:        22
   Number of discrete states:           0
   Number of constraint states:         0
   Number of inputs:                 1890
   Number of outputs:                  25
   Jacobians included in this file?    No

Order of continuous states:
   Row/Column Operating Point                                                   Rotating Frame? Derivative Order Description
   ---------- ---------------                                                   --------------- ---------------- -----------
          1     6.82457113266E+000                                                     F               2         Platform horizontal surge translation DOF (internal DOF index = DOF_Sg), m
          2    -8.24404835701E-001                                                     F               2         Platform horizontal sway translation DOF (internal DOF index = DOF_Sw), m
          3    -1.09644576907E-001                                                     F               2         Platform vertical heave translation DOF (internal DOF index = DOF_Hv), m
          4     5.43577969074E-002                                                     F               2         Platform roll tilt rotation DOF (internal DOF index = DOF_R), rad
          5     9.52643901110E-002                                                     F               2         Platform pitch tilt rotation DOF (internal DOF index = DOF_P), rad
          6    -9.29606892169E-003                                                     F               2         Platform yaw rotation DOF (internal DOF index = DOF_Y), rad
          7     5.34990906715E-001                                                     F               2         1st tower fore-aft bending mode DOF (internal DOF index = DOF_TFA1), m
          8     2.74077087641E-001                                                     F               2         1st tower side-to-side bending mode DOF (internal DOF index = DOF_TSS1), m
          9     1.51392607950E-003                                                     F               2         2nd tower fore-aft bending mode DOF (internal DOF index = DOF_TFA2), m
         10    -2.96978862025E-004                                                     F               2         2nd tower side-to-side bending mode DOF (internal DOF index = DOF_TSS2), m
         11     2.28132462502E+000                                                     F               2         Variable speed generator DOF (internal DOF index = DOF_GeAz), rad
         12    -2.75267590769E-003                                                     F               2         First time derivative of Platform horizontal surge translation DOF (internal DOF index = DOF_Sg), m/s
         13     2.55890795961E-003                                                     F               2         First time derivative of Platform horizontal sway translation DOF (internal DOF index = DOF_Sw), m/s
         14    -3.31297353841E-003                                                     F               2         First time derivative of Platform vertical heave translation DOF (internal DOF index = DOF_Hv), m/s
         15    -9.53730923356E-005                                                     F               2         First time derivative of Platform roll tilt rotation DOF (internal DOF index = DOF_R), rad/s
         16    -2.08363548154E-004                                                     F               2         First time derivative of Platform pitch tilt rotation DOF (internal DOF index = DOF_P), rad/s
         17    -1.37195570460E-006                                                     F               2         First time derivative of Platform yaw rotation DOF (internal DOF index = DOF_Y), rad/s
         18     4.53852228820E-002                                                     F               2         First time derivative of 1st tower fore-aft bending mode DOF (internal DOF index = DOF_TFA1), m/s
         19     1.87824200839E-002                                                     F               2         First time derivative of 1st tower side-to-side bending mode DOF (internal DOF index = DOF_TSS1), m/s
         20    -1.96020060685E-004                                                     F               2         First time derivative of 2nd tower fore-aft bending mode DOF (internal DOF index = DOF_TFA2), m/s
         21    -2.31430931308E-005                                                     F               2         First time derivative of 2nd tower side-to-side bending mode DOF (internal DOF index = DOF_TSS2), m/s
         22     7.91648209095E-001                                                     F               2         First time derivative of Variable speed generator DOF (internal DOF index = DOF_GeAz), rad/s

Order of continuous state derivatives:
   Row/Column Operating Point                                                   Rotating Frame? Derivative Order Description
   ---------- ---------------                                                   --------------- ---------------- -----------
          1    -2.75267590769E-003                                                     F               2         First time derivative of Platform horizontal surge translation DOF (internal DOF index = DOF_Sg), m/s
          2     2.55890795961E-003                                                     F               2         First time derivative of Platform horizontal sway translation DOF (internal DOF index = DOF_Sw), m/s
          3    -3.31297353841E-003                                                     F               2         First time derivative of Platform vertical heave translation DOF (internal DOF index = DOF_Hv), m/s
          4    -9.53730923356E-005                                                     F               2         First time derivative of Platform roll tilt rotation DOF (internal DOF index = DOF_R), rad/s
          5    -2.08363548154E-004                                                     F               2         First time derivative of Platform pitch tilt rotation DOF (internal DOF index = DOF_P), rad/s
          6    -1.37195570460E-006                                                     F               2         First time derivative of Platform yaw rotation DOF (internal DOF index = DOF_Y), rad/s
          7     4.53852228820E-002                                                     F               2         First time derivative of 1st tower fore-aft bending mode DOF (internal DOF index = DOF_TFA1), m/s
          8     1.87824200839E-002                                                     F               2         First time derivative of 1st tower side-to-side bending mode DOF (internal DOF index = DOF_TSS1), m/s
          9    -1.96020060685E-004                                                     F               2         First time derivative of 2nd tower fore-aft bending mode DOF (internal DOF index = DOF_TFA2), m/s
         10    -2.31430931308E-005                                                     F               2         First time derivative of 2nd tower side-to-side bending mode DOF (internal DOF index = DOF_TSS2), m/s
         11     7.91648209095E-001                                                     F               2         First time derivative of Variable speed generator DOF (internal DOF index = DOF_GeAz), rad/s
         12    -4.74800588563E-003                                                     F               2         First time derivative of First time derivative of Platform horizontal surge translation DOF (internal DOF index = DOF_Sg), m/s/s
         13    -2.57729971781E-003                                                     F               2         First time derivative of First time derivative of Platform horizontal sway translation DOF (internal DOF index = DOF_Sw), m/s/s
         14    -8.24791262858E-004                                                     F               2         First time derivative of First time derivative of Platform vertical heave translation DOF (internal DOF index = DOF_Hv), m/s/s
         15     1.57882939675E-004                                                     F               2         First time derivative of First time derivative of Platform roll tilt rotation DOF (internal DOF index = DOF_R), rad/s/s
         16    -3.18277045153E-004                                                     F               2         First time derivative of First time derivative of Platform pitch tilt rotation DOF (internal DOF index = DOF_P), rad/s/s
         17    -2.58565960394E-005                                                     F               2         First time derivative of First time derivative of Platform yaw rotation DOF (internal DOF index = DOF_Y), rad/s/s
         18     6.85435757041E-002                                                     F               2         First time derivative of First time derivative of 1st tower fore-aft bending mode DOF (internal DOF index = DOF_TFA1), m/s/s
         19    -3.81273701787E-002                                                     F               2         First time derivative of First time derivative of 1st tower side-to-side bending mode DOF (internal DOF index = DOF_TSS1), m/s/s
         20    -1.43582012970E-003                                                     F               2         First time derivative of First time derivative of 2nd tower fore-aft bending mode DOF (internal DOF index = DOF_TFA2), m/s/s
         21    -3.87475738535E-004                                                     F               2         First time derivative of First time derivative of 2nd tower side-to-side bending mode DOF (internal DOF index = DOF_TSS2), m/s/s
         22    -3.43362771673E-004                                                     F               2         First time derivative of First time derivative of Variable speed generator DOF (internal DOF index = DOF_GeAz), rad/s/s

Order of inputs:
     Column   Operating Point                                                   Rotating Frame? Derivative Order Description
   ---------- ---------------                                                   --------------- ---------------- -----------
          1     3.55569061279E+002                                                     F               0         Blade 1 X force, node 1, N
          2    -2.38676376343E+001                                                     F               0         Blade 1 Y force, node 1, N
          3    -9.77151489258E+001                                                     F               0         Blade 1 Z force, node 1, N
          4     1.38110339355E+003                                                     F               0         Blade 1 X force, node 2, N
          5    -2.09070491791E+001                                                     F               0         Blade 1 Y force, node 2, N
          6    -3.08584960938E+002                                                     F               0         Blade 1 Z force, node 2, N
          7     1.51260559082E+003                                                     F               0         Blade 1 X force, node 3, N
          8     1.31534591675E+002                                                     F               0         Blade 1 Y force, node 3, N
          9    -1.85339279175E+002                                                     F               0         Blade 1 Z force, node 3, N
         10     1.78735437012E+003                                                     F               0         Blade 1 X force, node 4, N
         11     2.83666137695E+002                                                     F               0         Blade 1 Y force, node 4, N
         12    -9.22630615234E+001                                                     F               0         Blade 1 Z force, node 4, N
         13     2.06211816406E+003                                                     F               0         Blade 1 X force, node 5, N
         14     4.35801269531E+002                                                     F               0         Blade 1 Y force, node 5, N
         15     8.13546359539E-001                                                     F               0         Blade 1 Z force, node 5, N
         16     2.33686987305E+003                                                     F               0         Blade 1 X force, node 6, N
         17     5.87934387207E+002                                                     F               0         Blade 1 Y force, node 6, N
         18     9.38907623291E+001                                                     F               0         Blade 1 Z force, node 6, N
         19     2.61160424805E+003                                                     F               0         Blade 1 X force, node 7, N
         20     7.40062744141E+002                                                     F               0         Blade 1 Y force, node 7, N
         21     1.86966751099E+002                                                     F               0         Blade 1 Z force, node 7, N
         22     2.88635302734E+003                                                     F               0         Blade 1 X force, node 8, N
         23     8.92194274902E+002                                                     F               0         Blade 1 Y force, node 8, N
         24     2.80042968750E+002                                                     F               0         Blade 1 Z force, node 8, N
         25     3.16110205078E+003                                                     F               0         Blade 1 X force, node 9, N
         26     1.04432580566E+003                                                     F               0         Blade 1 Y force, node 9, N
         27     3.73119201660E+002                                                     F               0         Blade 1 Z force, node 9, N
         28     3.43585083008E+003                                                     F               0         Blade 1 X force, node 10, N
         29     1.19645727539E+003                                                     F               0         Blade 1 Y force, node 10, N
         30     4.66195434570E+002                                                     F               0         Blade 1 Z force, node 10, N
         31     3.71059960938E+003                                                     F               0         Blade 1 X force, node 11, N
         32     1.34858886719E+003                                                     F               0         Blade 1 Y force, node 11, N
         33     5.59271667480E+002                                                     F               0         Blade 1 Z force, node 11, N
         34     3.98537573242E+003                                                     F               0         Blade 1 X force, node 12, N
         35     1.50073107910E+003                                                     F               0         Blade 1 Y force, node 12, N
         36     6.52352600098E+002                                                     F               0         Blade 1 Z force, node 12, N
         37     4.26012792969E+003                                                     F               0         Blade 1 X force, node 13, N
         38     1.65286425781E+003                                                     F               0         Blade 1 Y force, node 13, N
         39     7.45429870605E+002                                                     F               0         Blade 1 Z force, node 13, N
         40     4.53484960938E+003                                                     F               0         Blade 1 X force, node 14, N
         41     1.80498571777E+003                                                     F               0         Blade 1 Y force, node 14, N
         42     8.38501586914E+002                                                     F               0         Blade 1 Z force, node 14, N
         43     4.80963037109E+003                                                     F               0         Blade 1 X force, node 15, N
         44     1.95713037109E+003                                                     F               0         Blade 1 Y force, node 15, N
         45     9.31584106445E+002                                                     F               0         Blade 1 Z force, node 15, N
         46     5.08434570312E+003                                                     F               0         Blade 1 X force, node 16, N
         47     2.10924829102E+003                                                     F               0         Blade 1 Y force, node 16, N
         48     1.02465356445E+003                                                     F               0         Blade 1 Z force, node 16, N
         49     6.19289062500E+003                                                     F               0         Blade 1 X force, node 17, N
         50     2.60851245117E+003                                                     F               0         Blade 1 Y force, node 17, N
         51     1.28698229980E+003                                                     F               0         Blade 1 Z force, node 17, N
         52     4.55151513672E+003                                                     F               0         Blade 1 X force, node 18, N
         53     1.89319458008E+003                                                     F               0         Blade 1 Y force, node 18, N
         54     9.22205444336E+002                                                     F               0         Blade 1 Z force, node 18, N
         55     5.34627929688E+003                                                     F               0         Blade 1 X force, node 19, N
         56     2.17377734375E+003                                                     F               0         Blade 1 Y force, node 19, N
         57     1.03382275391E+003                                                     F               0         Blade 1 Z force, node 19, N
         58     4.36998046875E+003                                                     F               0         Blade 1 X force, node 20, N
         59     1.73569055176E+003                                                     F               0         Blade 1 Y force, node 20, N
         60     8.04386718750E+002                                                     F               0         Blade 1 Z force, node 20, N
         61     6.17669091797E+003                                                     F               0         Blade 1 X force, node 21, N
         62     2.40480224609E+003                                                     F               0         Blade 1 Y force, node 21, N
         63     1.08902990723E+003                                                     F               0         Blade 1 Z force, node 21, N
         64     5.27211669922E+003                                                     F               0         Blade 1 X force, node 22, N
         65     2.04632287598E+003                                                     F               0         Blade 1 Y force, node 22, N
         66     9.23318237305E+002                                                     F               0         Blade 1 Z force, node 22, N
         67     5.25821386719E+003                                                     F               0         Blade 1 X force, node 23, N
         68     2.03814562988E+003                                                     F               0         Blade 1 Y force, node 23, N
         69     9.18135131836E+002                                                     F               0         Blade 1 Z force, node 23, N
         70     5.34418457031E+003                                                     F               0         Blade 1 X force, node 24, N
         71     2.07062573242E+003                                                     F               0         Blade 1 Y force, node 24, N
         72     9.32313049316E+002                                                     F               0         Blade 1 Z force, node 24, N
         73     5.36559814453E+003                                                     F               0         Blade 1 X force, node 25, N
         74     2.08575268555E+003                                                     F               0         Blade 1 Y force, node 25, N
         75     9.42799438477E+002                                                     F               0         Blade 1 Z force, node 25, N
         76     5.42461523438E+003                                                     F               0         Blade 1 X force, node 26, N
         77     2.11728881836E+003                                                     F               0         Blade 1 Y force, node 26, N
         78     9.61663269043E+002                                                     F               0         Blade 1 Z force, node 26, N
         79     6.41482470703E+003                                                     F               0         Blade 1 X force, node 27, N
         80     2.51817578125E+003                                                     F               0         Blade 1 Y force, node 27, N
         81     1.15143444824E+003                                                     F               0         Blade 1 Z force, node 27, N
         82     4.95074023438E+003                                                     F               0         Blade 1 X force, node 28, N
         83     1.98107653809E+003                                                     F               0         Blade 1 Y force, node 28, N
         84     9.25832885742E+002                                                     F               0         Blade 1 Z force, node 28, N
         85     6.37851367188E+003                                                     F               0         Blade 1 X force, node 29, N
         86     2.60126879883E+003                                                     F               0         Blade 1 Y force, node 29, N
         87     1.24112634277E+003                                                     F               0         Blade 1 Z force, node 29, N
         88     5.68680126953E+003                                                     F               0         Blade 1 X force, node 30, N
         89     2.35663842773E+003                                                     F               0         Blade 1 Y force, node 30, N
         90     1.14355773926E+003                                                     F               0         Blade 1 Z force, node 30, N
         91     8.53991699219E+003                                                     F               0         Blade 1 X force, node 31, N
         92     3.56725878906E+003                                                     F               0         Blade 1 Y force, node 31, N
         93     1.74523486328E+003                                                     F               0         Blade 1 Z force, node 31, N
         94     7.61028808594E+003                                                     F               0         Blade 1 X force, node 32, N
         95     3.15244433594E+003                                                     F               0         Blade 1 Y force, node 32, N
         96     1.52906958008E+003                                                     F               0         Blade 1 Z force, node 32, N
         97     7.88029052734E+003                                                     F               0         Blade 1 X force, node 33, N
         98     3.23594799805E+003                                                     F               0         Blade 1 Y force, node 33, N
         99     1.55530957031E+003                                                     F               0         Blade 1 Z force, node 33, N
        100     8.11821386719E+003                                                     F               0         Blade 1 X force, node 34, N
        101     3.30217651367E+003                                                     F               0         Blade 1 Y force, node 34, N
        102     1.57116320801E+003                                                     F               0         Blade 1 Z force, node 34, N
        103     8.21974609375E+003                                                     F               0         Blade 1 X force, node 35, N
        104     3.29599511719E+003                                                     F               0         Blade 1 Y force, node 35, N
        105     1.54388720703E+003                                                     F               0         Blade 1 Z force, node 35, N
        106     8.28500488281E+003                                                     F               0         Blade 1 X force, node 36, N
        107     3.27083837891E+003                                                     F               0         Blade 1 Y force, node 36, N
        108     1.50542016602E+003                                                     F               0         Blade 1 Z force, node 36, N
        109     9.75983886719E+003                                                     F               0         Blade 1 X force, node 37, N
        110     3.78912890625E+003                                                     F               0         Blade 1 Y force, node 37, N
        111     1.71019226074E+003                                                     F               0         Blade 1 Z force, node 37, N
        112     6.98662500000E+003                                                     F               0         Blade 1 X force, node 38, N
        113     2.66299511719E+003                                                     F               0         Blade 1 Y force, node 38, N
        114     1.17535668945E+003                                                     F               0         Blade 1 Z force, node 38, N
        115     8.43182324219E+003                                                     F               0         Blade 1 X force, node 39, N
        116     3.16104882812E+003                                                     F               0         Blade 1 Y force, node 39, N
        117     1.36630590820E+003                                                     F               0         Blade 1 Z force, node 39, N
        118     7.08176074219E+003                                                     F               0         Blade 1 X force, node 40, N
        119     2.61073339844E+003                                                     F               0         Blade 1 Y force, node 40, N
        120     1.10387219238E+003                                                     F               0         Blade 1 Z force, node 40, N
        121     9.87690429688E+003                                                     F               0         Blade 1 X force, node 41, N
        122     3.56797973633E+003                                                     F               0         Blade 1 Y force, node 41, N
        123     1.46722143555E+003                                                     F               0         Blade 1 Z force, node 41, N
        124     8.50342285156E+003                                                     F               0         Blade 1 X force, node 42, N
        125     3.00576245117E+003                                                     F               0         Blade 1 Y force, node 42, N
        126     1.19790734863E+003                                                     F               0         Blade 1 Z force, node 42, N
        127     8.51334179688E+003                                                     F               0         Blade 1 X force, node 43, N
        128     2.94692626953E+003                                                     F               0         Blade 1 Y force, node 43, N
        129     1.13769128418E+003                                                     F               0         Blade 1 Z force, node 43, N
        130     8.55711914062E+003                                                     F               0         Blade 1 X force, node 44, N
        131     2.90002221680E+003                                                     F               0         Blade 1 Y force, node 44, N
        132     1.08220922852E+003                                                     F               0         Blade 1 Z force, node 44, N
        133     8.42161816406E+003                                                     F               0         Blade 1 X force, node 45, N
        134     2.79501318359E+003                                                     F               0         Blade 1 Y force, node 45, N