
Linearized model: Predictions were generated on 13-Feb-2024 at 12:12:09 using OpenFAST, compiled as a 64-bit application using single precision at commit v3.5.1
 linked with  NWTC Subroutine Library; ElastoDyn; InflowWind; AeroDyn; ServoDyn; HydroDyn; MAP++ (<1.20.10>, <Oct-20-2023>)

Description from the FAST input file: CCT-9 Campign 4 model. Input files to be run with OpenFAST 3.5.0. GitHub branch from Lu Wang (https://github.com/luwang00/openfast/tree/dev) compiled on March 7, 2023.

Simulation information:
   Simulation time:                   776.8500 s
   Rotor Speed:                         0.7923 rad/s
   Azimuth:                             5.0797 rad
   Wind Speed:                         24.0000 m/s
   Number of continuous states:         0
   Number of discrete states:           0
   Number of constraint states:         0
   Number of inputs:                   37
   Number of outputs:                   7
   Jacobians included in this file?    No

Order of inputs:
     Column   Operating Point                                                   Rotating Frame? Derivative Order Description
   ---------- ---------------                                                   --------------- ---------------- -----------
          1     6.82484054565E+000                                                     F               0         WAMIT X translation displacement, node 1, m
          2    -8.23595345020E-001                                                     F               0         WAMIT Y translation displacement, node 1, m
          3    -1.16167649627E-001                                                     F               0         WAMIT Z translation displacement, node 1, m
          4     9.95468556881E-001,  -6.65915990248E-003,  -9.48578789830E-002         F               0         WAMIT X orientation angle, node 1, rad
          5     1.17913689464E-002,   9.98490333557E-001,   5.36468960345E-002         F               0         WAMIT Y orientation angle, node 1, rad
          6     9.43574309349E-002,  -5.45223020017E-002,   9.94044244289E-001         F               0         WAMIT Z orientation angle, node 1, rad
          7     5.46157173812E-003                                                     F               0         WAMIT X translation velocity, node 1, m/s
          8     8.51262419019E-004                                                     F               0         WAMIT Y translation velocity, node 1, m/s
          9    -5.12738758698E-003                                                     F               0         WAMIT Z translation velocity, node 1, m/s
         10     2.35340230574E-005                                                     F               0         WAMIT X rotation velocity, node 1, rad/s
         11     2.34276609262E-004                                                     F               0         WAMIT Y rotation velocity, node 1, rad/s
         12     3.32223135047E-005                                                     F               0         WAMIT Z rotation velocity, node 1, rad/s
         13     7.84065632615E-004                                                     F               0         WAMIT X translation acceleration, node 1, m/s^2
         14     4.56195836887E-003                                                     F               0         WAMIT Y translation acceleration, node 1, m/s^2
         15    -4.88925841637E-004                                                     F               0         WAMIT Z translation acceleration, node 1, m/s^2
         16    -2.66179908067E-004                                                     F               0         WAMIT X rotation acceleration, node 1, rad/s^2
         17     2.01274269784E-005                                                     F               0         WAMIT Y rotation acceleration, node 1, rad/s^2
         18     4.57072428617E-006                                                     F               0         WAMIT Z rotation acceleration, node 1, rad/s^2
         19     6.82484054565E+000                                                     F               0         Platform-RefPt X translation displacement, node 1, m
         20    -8.23595345020E-001                                                     F               0         Platform-RefPt Y translation displacement, node 1, m
         21    -1.16167649627E-001                                                     F               0         Platform-RefPt Z translation displacement, node 1, m
         22     9.95468556881E-001,  -6.65915990248E-003,  -9.48578789830E-002         F               0         Platform-RefPt X orientation angle, node 1, rad
         23     1.17913689464E-002,   9.98490333557E-001,   5.36468960345E-002         F               0         Platform-RefPt Y orientation angle, node 1, rad
         24     9.43574309349E-002,  -5.45223020017E-002,   9.94044244289E-001         F               0         Platform-RefPt Z orientation angle, node 1, rad
         25     5.46157173812E-003                                                     F               0         Platform-RefPt X translation velocity, node 1, m/s
         26     8.51262419019E-004                                                     F               0         Platform-RefPt Y translation velocity, node 1, m/s
         27    -5.12738758698E-003                                                     F               0         Platform-RefPt Z translation velocity, node 1, m/s
         28     2.35340230574E-005                                                     F               0         Platform-RefPt X rotation velocity, node 1, rad/s
         29     2.34276609262E-004                                                     F               0         Platform-RefPt Y rotation velocity, node 1, rad/s
         30     3.32223135047E-005                                                     F               0         Platform-RefPt Z rotation velocity, node 1, rad/s
         31     7.84065632615E-004                                                     F               0         Platform-RefPt X translation acceleration, node 1, m/s^2
         32     4.56195836887E-003                                                     F               0         Platform-RefPt Y translation acceleration, node 1, m/s^2
         33    -4.88925841637E-004                                                     F               0         Platform-RefPt Z translation acceleration, node 1, m/s^2
         34    -2.66179908067E-004                                                     F               0         Platform-RefPt X rotation acceleration, node 1, rad/s^2
         35     2.01274269784E-005                                                     F               0         Platform-RefPt Y rotation acceleration, node 1, rad/s^2
         36     4.57072428617E-006                                                     F               0         Platform-RefPt Z rotation acceleration, node 1, rad/s^2
         37     0.00000000000E+000                                                     F               0         Extended input: wave elevation at platform ref point, m

Order of outputs:
        Row   Operating Point                                                   Rotating Frame? Derivative Order Description
   ---------- ---------------                                                   --------------- ---------------- -----------
          1     0.00000000000E+000                                                     F               0         Wave1Elev, (m)
          2    -5.30994101562E+004                                                     F               0         HydroFxi, (N)
          3    -1.67756386719E+004                                                     F               0         HydroFyi, (N)
          4     2.03857680000E+008                                                     F               0         HydroFzi, (N)
          5    -1.13565520000E+008                                                     F               0         HydroMxi, (N-m)
          6    -2.03327840000E+008                                                     F               0         HydroMyi, (N-m)
          7    -8.96307656250E+004                                                     F               0         HydroMzi, (N-m)


Linearized state matrices:

D: 7 x 37
     0.00000000000E+000   0.00000000000E+000   0.00000000000E+000   0.00000000000E+000   0.00000000000E+000   0.00000000000E+000   0.00000000000E+000   0.00000000000E+000   0.00000000000E+000   0.00000000000E+000   0.00000000000E+000   0.00000000000E+000   0.00000000000E+000   0.00000000000E+000   0.00000000000E+000   0.00000000000E+000   0.00000000000E+000   0.00000000000E+000   0.00000000000E+000   0.00000000000E+000   0.00000000000E+000   0.00000000000E+000   0.00000000000E+000   0.00000000000E+000   0.00000000000E+000   0.00000000000E+000   0.00000000000E+000   0.00000000000E+000   0.00000000000E+000   0.00000000000E+000   0.00000000000E+000   0.00000000000E+000   0.00000000000E+000   0.00000000000E+000   0.00000000000E+000   0.00000000000E+000   0.00000000000E+000
    -6.86001893231E+003   0.00000000000E+000   0.00000000000E+000   0.00000000000E+000   0.00000000000E+000   0.00000000000E+000  -2.82417179051E+005   0.00000000000E+000   0.00000000000E+000   0.00000000000E+000   0.00000000000E+000   0.00000000000E+000  -9.38083896931E+006   0.00000000000E+000   1.99512100047E+001   5.59529101142E-002   9.82680351759E+007   0.00000000000E+000   0.00000000000E+000   0.00000000000E+000   0.00000000000E+000   0.00000000000E+000   0.00000000000E+000   0.00000000000E+000   0.00000000000E+000   0.00000000000E+000   0.00000000000E+000   0.00000000000E+000   0.00000000000E+000   0.00000000000E+000   0.00000000000E+000   0.00000000000E+000   0.00000000000E+000   0.00000000000E+000   0.00000000000E+000   0.00000000000E+000   0.00000000000E+000
     0.00000000000E+000   0.00000000000E+000   0.00000000000E+000   0.00000000000E+000   0.00000000000E+000   0.00000000000E+000   0.00000000000E+000  -2.82178979508E+005   0.00000000000E+000   0.00000000000E+000   0.00000000000E+000   0.00000000000E+000   0.00000000000E+000  -9.38088807999E+006   0.00000000000E+000  -9.82662446828E+007   0.00000000000E+000   1.78568117338E+003   0.00000000000E+000   0.00000000000E+000   0.00000000000E+000   0.00000000000E+000   0.00000000000E+000   0.00000000000E+000   0.00000000000E+000   0.00000000000E+000   0.00000000000E+000   0.00000000000E+000   0.00000000000E+000   0.00000000000E+000   0.00000000000E+000   0.00000000000E+000   0.00000000000E+000   0.00000000000E+000   0.00000000000E+000   0.00000000000E+000   0.00000000000E+000
     0.00000000000E+000   0.00000000000E+000  -4.39494666861E+006   0.00000000000E+000   4.12529615690E+003   0.00000000000E+000   0.00000000000E+000   0.00000000000E+000  -8.07706832107E+005   0.00000000000E+000   0.00000000000E+000   0.00000000000E+000   0.00000000000E+000   0.00000000000E+000  -2.41345551631E+007   2.29183119828E+002   1.76471002267E+004   0.00000000000E+000   0.00000000000E+000   0.00000000000E+000   0.00000000000E+000   0.00000000000E+000   0.00000000000E+000   0.00000000000E+000   0.00000000000E+000   0.00000000000E+000   0.00000000000E+000   0.00000000000E+000   0.00000000000E+000   0.00000000000E+000   0.00000000000E+000   0.00000000000E+000   0.00000000000E+000   0.00000000000E+000   0.00000000000E+000   0.00000000000E+000   0.00000000000E+000
     0.00000000000E+000   2.03857674121E+008   1.67958494070E+004  -2.13421509128E+009   0.00000000000E+000   8.86938673733E+004   0.00000000000E+000   0.00000000000E+000   0.00000000000E+000  -2.78327497925E+009   0.00000000000E+000   0.00000000000E+000   0.00000000000E+000  -9.82010097437E+007   0.00000000000E+000  -1.13246530020E+010   0.00000000000E+000   5.29413006802E+004   0.00000000000E+000  -2.03857674121E+008  -1.67958494070E+004   0.00000000000E+000   0.00000000000E+000   0.00000000000E+000   0.00000000000E+000   0.00000000000E+000   0.00000000000E+000   0.00000000000E+000   0.00000000000E+000   0.00000000000E+000   0.00000000000E+000   0.00000000000E+000   0.00000000000E+000   0.00000000000E+000   0.00000000000E+000   0.00000000000E+000   0.00000000000E+000
    -2.03857674121E+008   0.00000000000E+000  -4.91761516751E+004   0.00000000000E+000  -2.13398040776E+009   0.00000000000E+000   0.00000000000E+000   0.00000000000E+000   0.00000000000E+000   0.00000000000E+000  -2.78338704980E+009   0.00000000000E+000   9.82037272008E+007   0.00000000000E+000   1.93168638404E+004   0.00000000000E+000  -1.13240534590E+010   0.00000000000E+000   2.03857674121E+008   0.00000000000E+000   5.31050053375E+004   0.00000000000E+000   0.00000000000E+000   0.00000000000E+000   0.00000000000E+000   0.00000000000E+000   0.00000000000E+000   0.00000000000E+000   0.00000000000E+000   0.00000000000E+000   0.00000000000E+000   0.00000000000E+000   0.00000000000E+000   0.00000000000E+000   0.00000000000E+000   0.00000000000E+000   0.00000000000E+000
    -1.67756424123E+004   5.30993780732E+004   0.00000000000E+000   0.00000000000E+000   0.00000000000E+000   0.00000000000E+000   0.00000000000E+000   0.00000000000E+000   0.00000000000E+000   0.00000000000E+000   0.00000000000E+000  -2.51327617925E+009   0.00000000000E+000   1.55379639839E+003   0.00000000000E+000   4.40409831741E+004   0.00000000000E+000  -1.95913504720E+010   1.67756424123E+004  -5.30993780732E+004   0.00000000000E+000   0.00000000000E+000   0.00000000000E+000   0.00000000000E+000   0.00000000000E+000   0.00000000000E+000   0.00000000000E+000   0.00000000000E+000   0.00000000000E+000   0.00000000000E+000   0.00000000000E+000   0.00000000000E+000   0.00000000000E+000   0.00000000000E+000   0.00000000000E+000   0.00000000000E+000   0.00000000000E+000
