
Linearized model: Predictions were generated on 06-Feb-2024 at 08:44:08 using OpenFAST, compiled as a 64-bit application using single precision at commit v3.5.1
 linked with  NWTC Subroutine Library; ElastoDyn; InflowWind; AeroDyn; ServoDyn; HydroDyn; MAP++ (<1.20.10>, <Oct-20-2023>)

Description from the FAST input file: CCT-9 Campign 4 model. Input files to be run with OpenFAST 3.5.0. GitHub branch from Lu Wang (https://github.com/luwang00/openfast/tree/dev) compiled on March 7, 2023.

Simulation information:
   Simulation time:                  2502.2000 s
   Rotor Speed:                         0.8857 rad/s
   Azimuth:                             5.0995 rad
   Wind Speed:                         10.0000 m/s
   Number of continuous states:         0
   Number of discrete states:           0
   Number of constraint states:         0
   Number of inputs:                 1746
   Number of outputs:                   4
   Jacobians included in this file?    No

Order of inputs:
     Column   Operating Point                     Rotating Frame? Derivative Order Description
   ---------- ---------------                     --------------- ---------------- -----------
          1    1.391E+01                                 F               0         Tower X translation displacement, node 1, m
          2    6.103E-02                                 F               0         Tower Y translation displacement, node 1, m
          3   -1.848E-01                                 F               0         Tower Z translation displacement, node 1, m
          4    1.488E+01                                 F               0         Tower X translation displacement, node 2, m
          5    8.580E-02                                 F               0         Tower Y translation displacement, node 2, m
          6   -2.233E-01                                 F               0         Tower Z translation displacement, node 2, m
          7    1.588E+01                                 F               0         Tower X translation displacement, node 3, m
          8    1.110E-01                                 F               0         Tower Y translation displacement, node 3, m
          9   -2.635E-01                                 F               0         Tower Z translation displacement, node 3, m
         10    1.689E+01                                 F               0         Tower X translation displacement, node 4, m
         11    1.366E-01                                 F               0         Tower Y translation displacement, node 4, m
         12   -3.050E-01                                 F               0         Tower Z translation displacement, node 4, m
         13    1.791E+01                                 F               0         Tower X translation displacement, node 5, m
         14    1.624E-01                                 F               0         Tower Y translation displacement, node 5, m
         15   -3.474E-01                                 F               0         Tower Z translation displacement, node 5, m
         16    1.894E+01                                 F               0         Tower X translation displacement, node 6, m
         17    1.885E-01                                 F               0         Tower Y translation displacement, node 6, m
         18   -3.907E-01                                 F               0         Tower Z translation displacement, node 6, m
         19    1.998E+01                                 F               0         Tower X translation displacement, node 7, m
         20    2.148E-01                                 F               0         Tower Y translation displacement, node 7, m
         21   -4.346E-01                                 F               0         Tower Z translation displacement, node 7, m
         22    2.103E+01                                 F               0         Tower X translation displacement, node 8, m
         23    2.413E-01                                 F               0         Tower Y translation displacement, node 8, m
         24   -4.789E-01                                 F               0         Tower Z translation displacement, node 8, m
         25    2.208E+01                                 F               0         Tower X translation displacement, node 9, m
         26    2.679E-01                                 F               0         Tower Y translation displacement, node 9, m
         27   -5.236E-01                                 F               0         Tower Z translation displacement, node 9, m
         28    2.313E+01                                 F               0         Tower X translation displacement, node 10, m
         29    2.946E-01                                 F               0         Tower Y translation displacement, node 10, m
         30   -5.686E-01                                 F               0         Tower Z translation displacement, node 10, m
         31    2.419E+01                                 F               0         Tower X translation displacement, node 11, m
         32    3.214E-01                                 F               0         Tower Y translation displacement, node 11, m
         33   -6.136E-01                                 F               0         Tower Z translation displacement, node 11, m
         34    9.969E-01,  1.258E-03, -7.829E-02         F               0         Tower X orientation angle, node 1, rad
         35   -1.410E-03,  1.000E+00, -1.886E-03         F               0         Tower Y orientation angle, node 1, rad
         36    7.828E-02,  1.990E-03,  9.969E-01         F               0         Tower Z orientation angle, node 1, rad
         37    9.968E-01,  1.255E-03, -7.982E-02         F               0         Tower X orientation angle, node 2, rad
         38   -1.412E-03,  1.000E+00, -1.917E-03         F               0         Tower Y orientation angle, node 2, rad
         39    7.982E-02,  2.024E-03,  9.968E-01         F               0         Tower Z orientation angle, node 2, rad
         40    9.967E-01,  1.252E-03, -8.116E-02         F               0         Tower X orientation angle, node 3, rad
         41   -1.414E-03,  1.000E+00, -1.945E-03         F               0         Tower Y orientation angle, node 3, rad
         42    8.115E-02,  2.054E-03,  9.967E-01         F               0         Tower Z orientation angle, node 3, rad
         43    9.966E-01,  1.249E-03, -8.228E-02         F               0         Tower X orientation angle, node 4, rad
         44   -1.416E-03,  1.000E+00, -1.970E-03         F               0         Tower Y orientation angle, node 4, rad
         45    8.228E-02,  2.080E-03,  9.966E-01         F               0         Tower Z orientation angle, node 4, rad
         46    9.965E-01,  1.248E-03, -8.319E-02         F               0         Tower X orientation angle, node 5, rad
         47   -1.418E-03,  1.000E+00, -1.991E-03         F               0         Tower Y orientation angle, node 5, rad
         48    8.319E-02,  2.103E-03,  9.965E-01         F               0         Tower Z orientation angle, node 5, rad
         49    9.965E-01,  1.246E-03, -8.391E-02         F               0         Tower X orientation angle, node 6, rad
         50   -1.420E-03,  1.000E+00, -2.010E-03         F               0         Tower Y orientation angle, node 6, rad
         51    8.391E-02,  2.122E-03,  9.965E-01         F               0         Tower Z orientation angle, node 6, rad
         52    9.964E-01,  1.245E-03, -8.444E-02         F               0         Tower X orientation angle, node 7, rad
         53   -1.421E-03,  1.000E+00, -2.024E-03         F               0         Tower Y orientation angle, node 7, rad
         54    8.444E-02,  2.137E-03,  9.964E-01         F               0         Tower Z orientation angle, node 7, rad
         55    9.964E-01,  1.244E-03, -8.483E-02         F               0         Tower X orientation angle, node 8, rad
         56   -1.422E-03,  1.000E+00, -2.036E-03         F               0         Tower Y orientation angle, node 8, rad
         57    8.483E-02,  2.149E-03,  9.964E-01         F               0         Tower Z orientation angle, node 8, rad
         58    9.964E-01,  1.243E-03, -8.509E-02         F               0         Tower X orientation angle, node 9, rad
         59   -1.423E-03,  1.000E+00, -2.044E-03         F               0         Tower Y orientation angle, node 9, rad
         60    8.508E-02,  2.158E-03,  9.964E-01         F               0         Tower Z orientation angle, node 9, rad
         61    9.964E-01,  1.243E-03, -8.524E-02         F               0         Tower X orientation angle, node 10, rad
         62   -1.423E-03,  1.000E+00, -2.050E-03         F               0         Tower Y orientation angle, node 10, rad
         63    8.524E-02,  2.164E-03,  9.964E-01         F               0         Tower Z orientation angle, node 10, rad
         64    9.964E-01,  1.243E-03, -8.531E-02         F               0         Tower X orientation angle, node 11, rad
         65   -1.423E-03,  1.000E+00, -2.053E-03         F               0         Tower Y orientation angle, node 11, rad
         66    8.531E-02,  2.167E-03,  9.964E-01         F               0         Tower Z orientation angle, node 11, rad
         67    2.635E-04                                 F               0         Tower X translation velocity, node 1, m/s
         68    8.022E-03                                 F               0         Tower Y translation velocity, node 1, m/s
         69    1.428E-03                                 F               0         Tower Z translation velocity, node 1, m/s
         70    2.924E-04                                 F               0         Tower X translation velocity, node 2, m/s
         71    1.352E-02                                 F               0         Tower Y translation velocity, node 2, m/s
         72    1.415E-03                                 F               0         Tower Z translation velocity, node 2, m/s
         73    2.625E-04                                 F               0         Tower X translation velocity, node 3, m/s
         74    1.910E-02                                 F               0         Tower Y translation velocity, node 3, m/s
         75    1.406E-03                                 F               0         Tower Z translation velocity, node 3, m/s
         76    1.879E-04                                 F               0         Tower X translation velocity, node 4, m/s
         77    2.475E-02                                 F               0         Tower Y translation velocity, node 4, m/s
         78    1.400E-03                                 F               0         Tower Z translation velocity, node 4, m/s
         79    7.646E-05                                 F               0         Tower X translation velocity, node 5, m/s
         80    3.045E-02                                 F               0         Tower Y translation velocity, node 5, m/s
         81    1.397E-03                                 F               0         Tower Z translation velocity, node 5, m/s
         82   -6.450E-05                                 F               0         Tower X translation velocity, node 6, m/s
         83    3.620E-02                                 F               0         Tower Y translation velocity, node 6, m/s
         84    1.397E-03                                 F               0         Tower Z translation velocity, node 6, m/s
         85   -2.268E-04                                 F               0         Tower X translation velocity, node 7, m/s
         86    4.199E-02                                 F               0         Tower Y translation velocity, node 7, m/s
         87    1.398E-03                                 F               0         Tower Z translation velocity, node 7, m/s
         88   -4.067E-04                                 F               0         Tower X translation velocity, node 8, m/s
         89    4.782E-02                                 F               0         Tower Y translation velocity, node 8, m/s
         90    1.401E-03                                 F               0         Tower Z translation velocity, node 8, m/s
         91   -5.990E-04                                 F               0         Tower X translation velocity, node 9, m/s
         92    5.367E-02                                 F               0         Tower Y translation velocity, node 9, m/s
         93    1.405E-03                                 F               0         Tower Z translation velocity, node 9, m/s
         94   -7.992E-04                                 F               0         Tower X translation velocity, node 10, m/s
         95    5.954E-02                                 F               0         Tower Y translation velocity, node 10, m/s
         96    1.409E-03                                 F               0         Tower Z translation velocity, node 10, m/s
         97   -1.004E-03                                 F               0         Tower X translation velocity, node 11, m/s
         98    6.542E-02                                 F               0         Tower Y translation velocity, node 11, m/s
         99    1.414E-03                                 F               0         Tower Z translation velocity, node 11, m/s
        100    2.489E+01                                 F               0         Hub X translation displacement, node 1, m
        101    3.250E-01                                 F               0         Hub Y translation displacement, node 1, m
        102    2.792E-01                                 F               0         Hub Z translation displacement, node 1, m
        103    9.820E-01,  1.010E-03, -1.890E-01         F               0         Hub X orientation angle, node 1, rad
        104   -1.755E-01,  3.754E-01, -9.101E-01         F               0         Hub Y orientation angle, node 1, rad
        105    7.003E-02,  9.269E-01,  3.688E-01         F               0         Hub Z orientation angle, node 1, rad
        106    8.693E-01                                 F               0         Hub X rotation velocity, node 1, rad/s
        107    8.779E-04                                 F               0         Hub Y rotation velocity, node 1, rad/s
        108   -1.673E-01                                 F               0         Hub Z rotation velocity, node 1, rad/s
        109    9.868E-01, -1.013E-02, -1.619E-01         F               0         Blade root 1 X orientation angle, node 1, rad
        110   -1.463E-01,  3.752E-01, -9.153E-01         F               0         Blade root 1 Y orientation angle, node 1, rad
        111    7.003E-02,  9.269E-01,  3.688E-01         F               0         Blade root 1 Z orientation angle, node 1, rad
        112    9.771E-01, -1.724E-02, -2.119E-01         F               0         Blade root 2 X orientation angle, node 1, rad
        113    1.775E-01,  6.148E-01,  7.685E-01         F               0         Blade root 2 Y orientation angle, node 1, rad
        114    1.170E-01, -7.885E-01,  6.038E-01         F               0         Blade root 2 Z orientation angle, node 1, rad
        115    9.807E-01,  3.039E-02, -1.929E-01         F               0         Blade root 3 X orientation angle, node 1, rad
        116    5.625E-02, -9.899E-01,  1.300E-01         F               0         Blade root 3 Y orientation angle, node 1, rad
        117   -1.870E-01, -1.383E-01, -9.726E-01         F               0         Blade root 3 Z orientation angle, node 1, rad
        118    2.470E+01                                 F               0         Blade 1 X translation displacement, node 1, m
        119    5.460E+00                                 F               0         Blade 1 Y translation displacement, node 1, m
        120   -3.187E+00                                 F               0         Blade 1 Z translation displacement, node 1, m
        121    2.466E+01                                 F               0         Blade 1 X translation displacement, node 2, m
        122    6.697E+00                                 F               0         Blade 1 Y translation displacement, node 2, m
        123   -4.023E+00                                 F               0         Blade 1 Z translation displacement, node 2, m
        124    2.403E+01                                 F               0         Blade 1 X translation displacement, node 3, m
        125    2.352E+01                                 F               0         Blade 1 Y translation displacement, node 3, m
        126   -1.538E+01                                 F               0         Blade 1 Z translation displacement, node 3, m
        127    2.390E+01                                 F               0         Blade 1 X translation displacement, node 4, m
        128    2.711E+01                                 F               0         Blade 1 Y translation displacement, node 4, m
        129   -1.780E+01                                 F               0         Blade 1 Z translation displacement, node 4, m
        130    2.376E+01                                 F               0         Blade 1 X translation displacement, node 5, m
        131    3.069E+01                                 F               0         Blade 1 Y translation displacement, node 5, m
        132   -2.022E+01                                 F               0         Blade 1 Z translation displacement, node 5, m
        133    2.363E+01                                 F               0         Blade 1 X translation displacement, node 6, m
        134    3.428E+01                                 F               0         Blade 1 Y translation displacement, node 6, m
        135   -2.264E+01                                 F               0         Blade 1 Z translation displacement, node 6, m
        136    2.350E+01                                 F               0         Blade 1 X translation displacement, node 7, m
        137    3.786E+01                                 F               0         Blade 1 Y translation displacement, node 7, m
        138   -2.506E+01                                 F               0         Blade 1 Z translation displacement, node 7, m
        139    2.336E+01                                 F               0         Blade 1 X translation displacement, node 8, m
        140    4.145E+01                                 F               0         Blade 1 Y translation displacement, node 8, m
        141   -2.748E+01                                 F               0         Blade 1 Z translation displacement, node 8, m
        142    2.323E+01                                 F               0         Blade 1 X translation displacement, node 9, m
        143    4.503E+01                                 F               0         Blade 1 Y translation displacement, node 9, m
        144   -2.990E+01                                 F               0         Blade 1 Z translation displacement, node 9, m
        145    2.310E+01                                 F               0         Blade 1 X translation displacement, node 10, m
        146    4.862E+01                                 F               0         Blade 1 Y translation displacement, node 10, m
        147   -3.232E+01                                 F               0         Blade 1 Z translation displacement, node 10, m
        148    2.296E+01                                 F               0         Blade 1 X translation displacement, node 11, m
        149    5.220E+01                                 F               0         Blade 1 Y translation displacement, node 11, m
        150   -3.474E+01                                 F               0         Blade 1 Z translation displacement, node 11, m
        151    2.283E+01                                 F               0         Blade 1 X translation displacement, node 12, m
        152    5.579E+01                                 F               0         Blade 1 Y translation displacement, node 12, m
        153   -3.716E+01                                 F               0         Blade 1 Z translation displacement, node 12, m
        154    2.270E+01                                 F               0         Blade 1 X translation displacement, node 13, m
        155    5.937E+01                                 F               0         Blade 1 Y translation displacement, node 13, m
        156   -3.958E+01                                 F               0         Blade 1 Z translation displacement, node 13, m
        157    2.256E+01                                 F               0         Blade 1 X translation displacement, node 14, m
        158    6.296E+01                                 F               0         Blade 1 Y translation displacement, node 14, m
        159   -4.200E+01                                 F               0         Blade 1 Z translation displacement, node 14, m
        160    2.243E+01                                 F               0         Blade 1 X translation displacement, node 15, m
        161    6.654E+01                                 F               0         Blade 1 Y translation displacement, node 15, m
        162   -4.442E+01                                 F               0         Blade 1 Z translation displacement, node 15, m
        163    2.230E+01                                 F               0         Blade 1 X translation displacement, node 16, m
        164    7.013E+01                                 F               0         Blade 1 Y translation displacement, node 16, m
        165   -4.684E+01                                 F               0         Blade 1 Z translation displacement, node 16, m
        166    2.216E+01                                 F               0         Blade 1 X translation displacement, node 17, m
        167    7.371E+01                                 F               0         Blade 1 Y translation displacement, node 17, m
        168   -4.926E+01                                 F               0         Blade 1 Z translation displacement, node 17, m
        169    2.203E+01                                 F               0         Blade 1 X translation displacement, node 18, m
        170    7.729E+01                                 F               0         Blade 1 Y translation displacement, node 18, m
        171   -5.168E+01                                 F               0         Blade 1 Z translation displacement, node 18, m
        172    2.190E+01                                 F               0         Blade 1 X translation displacement, node 19, m
        173    8.088E+01                                 F               0         Blade 1 Y translation displacement, node 19, m
        174   -5.410E+01                                 F               0         Blade 1 Z translation displacement, node 19, m
        175    2.176E+01                                 F               0         Blade 1 X translation displacement, node 20, m
        176    8.446E+01                                 F               0         Blade 1 Y translation displacement, node 20, m
        177   -5.652E+01                                 F               0         Blade 1 Z translation displacement, node 20, m
        178    2.163E+01                                 F               0         Blade 1 X translation displacement, node 21, m
        179    8.805E+01                                 F               0         Blade 1 Y translation displacement, node 21, m
        180   -5.894E+01                                 F               0         Blade 1 Z translation displacement, node 21, m
        181    2.150E+01                                 F               0         Blade 1 X translation displacement, node 22, m
        182    9.163E+01                                 F               0         Blade 1 Y translation displacement, node 22, m
        183   -6.136E+01                                 F               0         Blade 1 Z translation displacement, node 22, m
        184    2.136E+01                                 F               0         Blade 1 X translation displacement, node 23, m
        185    9.522E+01                                 F               0         Blade 1 Y translation displacement, node 23, m
        186   -6.378E+01                                 F               0         Blade 1 Z translation displacement, node 23, m
        187    2.123E+01                                 F               0         Blade 1 X translation displacement, node 24, m
        188    9.880E+01                                 F               0         Blade 1 Y translation displacement, node 24, m
        189   -6.620E+01                                 F               0         Blade 1 Z translation displacement, node 24, m
        190    2.109E+01                                 F               0         Blade 1 X translation displacement, node 25, m
        191    1.024E+02                                 F               0         Blade 1 Y translation displacement, node 25, m
        192   -6.862E+01                                 F               0         Blade 1 Z translation displacement, node 25, m
        193    2.096E+01                                 F               0         Blade 1 X translation displacement, node 26, m
        194    1.060E+02                                 F               0         Blade 1 Y translation displacement, node 26, m
        195   -7.104E+01                                 F               0         Blade 1 Z translation displacement, node 26, m
        196    2.083E+01                                 F               0         Blade 1 X translation displacement, node 27, m
        197    1.096E+02                                 F               0         Blade 1 Y translation displacement, node 27, m
        198   -7.346E+01                                 F               0         Blade 1 Z translation displacement, node 27, m
        199    2.071E+01                                 F               0         Blade 1 X translation displacement, node 28, m
        200    1.126E+02                                 F               0         Blade 1 Y translation displacement, node 28, m
        201   -7.552E+01                                 F               0         Blade 1 Z translation displacement, node 28, m
        202    9.449E-01, -1.801E-01,  2.733E-01         F               0         Blade 1 X orientation angle, node 1, rad
        203    3.197E-01,  3.293E-01, -8.884E-01         F               0         Blade 1 Y orientation angle, node 1, rad
        204    7.003E-02,  9.269E-01,  3.688E-01         F               0         Blade 1 Z orientation angle, node 1, rad
        205    9.449E-01, -1.801E-01,  2.733E-01         F               0         Blade 1 X orientation angle, node 2, rad
        206    3.197E-01,  3.293E-01, -8.884E-01         F               0         Blade 1 Y orientation angle, node 2, rad
        207    7.003E-02,  9.269E-01,  3.688E-01         F               0         Blade 1 Z orientation angle, node 2, rad
        208    9.938E-01, -9.694E-02,  5.494E-02         F               0         Blade 1 X orientation angle, node 3, rad
        209    8.667E-02,  3.627E-01, -9.279E-01         F               0         Blade 1 Y orientation angle, node 3, rad
        210    7.003E-02,  9.269E-01,  3.688E-01         F               0         Blade 1 Z orientation angle, node 3, rad
        211    9.965E-01, -8.154E-02,  1.571E-02         F               0         Blade 1 X orientation angle, node 4, rad
        212    4.463E-02,  3.664E-01, -9.294E-01         F               0         Blade 1 Y orientation angle, node 4, rad
        213    7.003E-02,  9.269E-01,  3.688E-01         F               0         Blade 1 Z orientation angle, node 4, rad
        214    9.975E-01, -6.935E-02, -1.511E-02         F               0         Blade 1 X orientation angle, node 5, rad
        215    1.157E-02,  3.689E-01, -9.294E-01         F               0         Blade 1 Y orientation angle, node 5, rad
        216    7.003E-02,  9.269E-01,  3.688E-01         F               0         Blade 1 Z orientation angle, node 5, rad
        217    9.974E-01, -5.954E-02, -3.976E-02         F               0         Blade 1 X orientation angle, node 6, rad
        218   -1.489E-02,  3.706E-01, -9.287E-01         F               0         Blade 1 Y orientation angle, node 6, rad
        219    7.003E-02,  9.269E-01,  3.688E-01         F               0         Blade 1 Z orientation angle, node 6, rad
        220    9.969E-01, -5.144E-02, -6.001E-02         F               0         Blade 1 X orientation angle, node 7, rad
        221   -3.665E-02,  3.718E-01, -9.276E-01         F               0         Blade 1 Y orientation angle, node 7, rad
        222    7.003E-02,  9.269E-01,  3.688E-01         F               0         Blade 1 Z orientation angle, node 7, rad
        223    9.960E-01, -4.468E-02, -7.683E-02         F               0         Blade 1 X orientation angle, node 8, rad
        224   -5.474E-02,  3.727E-01, -9.263E-01         F               0         Blade 1 Y orientation angle, node 8, rad
        225    7.003E-02,  9.269E-01,  3.688E-01         F               0         Blade 1 Z orientation angle, node 8, rad
        226    9.951E-01, -3.895E-02, -9.105E-02         F               0         Blade 1 X orientation angle, node 9, rad
        227   -7.003E-02,  3.734E-01, -9.250E-01         F               0         Blade 1 Y orientation angle, node 9, rad