
Linearized model: Predictions were generated on 13-Feb-2024 at 11:29:37 using OpenFAST, compiled as a 64-bit application using single precision at commit v3.5.1
 linked with  NWTC Subroutine Library; ElastoDyn; InflowWind; AeroDyn; ServoDyn; HydroDyn; MAP++ (<1.20.10>, <Oct-20-2023>)

Description from the FAST input file: CCT-9 Campign 4 model. Input files to be run with OpenFAST 3.5.0. GitHub branch from Lu Wang (https://github.com/luwang00/openfast/tree/dev) compiled on March 7, 2023.

Simulation information:
   Simulation time:                  1215.4750 s
   Rotor Speed:                         0.7918 rad/s
   Azimuth:                             3.6810 rad
   Wind Speed:                         16.0000 m/s
   Number of continuous states:         0
   Number of discrete states:           0
   Number of constraint states:         0
   Number of inputs:                    9
   Number of outputs:                   3
   Jacobians included in this file?    No

Order of inputs:
     Column   Operating Point                                                   Rotating Frame? Derivative Order Description
   ---------- ---------------                                                   --------------- ---------------- -----------
          1     6.72450399399E+000                                                     F               0         PtFairDisplacement X translation displacement, node 1, m
          2     2.87360787392E-001                                                     F               0         PtFairDisplacement Y translation displacement, node 1, m
          3    -6.01452255249E+000                                                     F               0         PtFairDisplacement Z translation displacement, node 1, m
          4     6.97252321243E+000                                                     F               0         PtFairDisplacement X translation displacement, node 2, m
          5     1.48915916681E-001                                                     F               0         PtFairDisplacement Y translation displacement, node 2, m
          6    -6.49246275425E-001                                                     F               0         PtFairDisplacement Z translation displacement, node 2, m
          7     7.40963077545E+000                                                     F               0         PtFairDisplacement X translation displacement, node 3, m
          8    -8.49440991879E-002                                                     F               0         PtFairDisplacement Y translation displacement, node 3, m
          9     6.63324499130E+000                                                     F               0         PtFairDisplacement Z translation displacement, node 3, m

Order of outputs:
        Row   Operating Point                                                   Rotating Frame? Derivative Order Description
   ---------- ---------------                                                   --------------- ---------------- -----------
          1     2.92938200000E+006                                                     F               0         T[1], [N]
          2     2.78665350000E+006                                                     F               0         T[2], [N]
          3     4.34542700000E+006                                                     F               0         T[3], [N]


Linearized state matrices:

D: 3 x 9
    -6.17160470667E+004   1.09808385426E+005  -3.00199192806E+003   0.00000000000E+000   0.00000000000E+000   0.00000000000E+000   0.00000000000E+000   0.00000000000E+000   0.00000000000E+000
     0.00000000000E+000   0.00000000000E+000   0.00000000000E+000  -6.16183372991E+004  -1.11047406668E+005  -6.39871085447E+002   0.00000000000E+000   0.00000000000E+000   0.00000000000E+000
     0.00000000000E+000   0.00000000000E+000   0.00000000000E+000   0.00000000000E+000   0.00000000000E+000   0.00000000000E+000   1.22791609165E+005  -2.75162983243E+003   6.60579417346E+003
