
Linearized model: Predictions were generated on 13-Feb-2024 at 12:12:09 using OpenFAST, compiled as a 64-bit application using single precision at commit v3.5.1
 linked with  NWTC Subroutine Library; ElastoDyn; InflowWind; AeroDyn; ServoDyn; HydroDyn; MAP++ (<1.20.10>, <Oct-20-2023>)

Description from the FAST input file: CCT-9 Campign 4 model. Input files to be run with OpenFAST 3.5.0. GitHub branch from Lu Wang (https://github.com/luwang00/openfast/tree/dev) compiled on March 7, 2023.

Simulation information:
   Simulation time:                   778.1500 s
   Rotor Speed:                         0.7913 rad/s
   Azimuth:                             6.1089 rad
   Wind Speed:                         24.0000 m/s
   Number of continuous states:         0
   Number of discrete states:           0
   Number of constraint states:         0
   Number of inputs:                   37
   Number of outputs:                   7
   Jacobians included in this file?    No

Order of inputs:
     Column   Operating Point                                                   Rotating Frame? Derivative Order Description
   ---------- ---------------                                                   --------------- ---------------- -----------
          1     6.82715177536E+000                                                     F               0         WAMIT X translation displacement, node 1, m
          2    -8.19390654564E-001                                                     F               0         WAMIT Y translation displacement, node 1, m
          3    -1.22664332390E-001                                                     F               0         WAMIT Z translation displacement, node 1, m
          4     9.95468974113E-001,  -6.64196442813E-003,  -9.48544740677E-002         F               0         WAMIT X orientation angle, node 1, rad
          5     1.17598660290E-002,   9.98498678207E-001,   5.34986779094E-002         F               0         WAMIT Y orientation angle, node 1, rad
          6     9.43567305803E-002,  -5.43717518449E-002,   9.94052588940E-001         F               0         WAMIT Z orientation angle, node 1, rad
          7    -2.22140038386E-003                                                     F               0         WAMIT X translation velocity, node 1, m/s
          8     3.45974834636E-003                                                     F               0         WAMIT Y translation velocity, node 1, m/s
          9    -4.66322991997E-003                                                     F               0         WAMIT Z translation velocity, node 1, m/s
         10    -1.26861050376E-004                                                     F               0         WAMIT X rotation velocity, node 1, rad/s
         11    -2.57337029325E-004                                                     F               0         WAMIT Y rotation velocity, node 1, rad/s
         12    -5.36324932909E-007                                                     F               0         WAMIT Z rotation velocity, node 1, rad/s
         13    -1.13922811579E-003                                                     F               0         WAMIT X translation acceleration, node 1, m/s^2
         14    -3.45375924371E-003                                                     F               0         WAMIT Y translation acceleration, node 1, m/s^2
         15     5.66690869164E-004                                                     F               0         WAMIT Z translation acceleration, node 1, m/s^2
         16     2.12211991311E-004                                                     F               0         WAMIT X rotation acceleration, node 1, rad/s^2
         17    -8.28332267702E-005                                                     F               0         WAMIT Y rotation acceleration, node 1, rad/s^2
         18    -1.29823229145E-005                                                     F               0         WAMIT Z rotation acceleration, node 1, rad/s^2
         19     6.82715177536E+000                                                     F               0         Platform-RefPt X translation displacement, node 1, m
         20    -8.19390654564E-001                                                     F               0         Platform-RefPt Y translation displacement, node 1, m
         21    -1.22664332390E-001                                                     F               0         Platform-RefPt Z translation displacement, node 1, m
         22     9.95468974113E-001,  -6.64196442813E-003,  -9.48544740677E-002         F               0         Platform-RefPt X orientation angle, node 1, rad
         23     1.17598660290E-002,   9.98498678207E-001,   5.34986779094E-002         F               0         Platform-RefPt Y orientation angle, node 1, rad
         24     9.43567305803E-002,  -5.43717518449E-002,   9.94052588940E-001         F               0         Platform-RefPt Z orientation angle, node 1, rad
         25    -2.22140038386E-003                                                     F               0         Platform-RefPt X translation velocity, node 1, m/s
         26     3.45974834636E-003                                                     F               0         Platform-RefPt Y translation velocity, node 1, m/s
         27    -4.66322991997E-003                                                     F               0         Platform-RefPt Z translation velocity, node 1, m/s
         28    -1.26861050376E-004                                                     F               0         Platform-RefPt X rotation velocity, node 1, rad/s
         29    -2.57337029325E-004                                                     F               0         Platform-RefPt Y rotation velocity, node 1, rad/s
         30    -5.36324932909E-007                                                     F               0         Platform-RefPt Z rotation velocity, node 1, rad/s
         31    -1.13922811579E-003                                                     F               0         Platform-RefPt X translation acceleration, node 1, m/s^2
         32    -3.45375924371E-003                                                     F               0         Platform-RefPt Y translation acceleration, node 1, m/s^2
         33     5.66690869164E-004                                                     F               0         Platform-RefPt Z translation acceleration, node 1, m/s^2
         34     2.12211991311E-004                                                     F               0         Platform-RefPt X rotation acceleration, node 1, rad/s^2
         35    -8.28332267702E-005                                                     F               0         Platform-RefPt Y rotation acceleration, node 1, rad/s^2
         36    -1.29823229145E-005                                                     F               0         Platform-RefPt Z rotation acceleration, node 1, rad/s^2
         37     0.00000000000E+000                                                     F               0         Extended input: wave elevation at platform ref point, m

Order of outputs:
        Row   Operating Point                                                   Rotating Frame? Derivative Order Description
   ---------- ---------------                                                   --------------- ---------------- -----------
          1     0.00000000000E+000                                                     F               0         Wave1Elev, (m)
          2    -4.39268320312E+004                                                     F               0         HydroFxi, (N)
          3     1.09805000000E+004                                                     F               0         HydroFyi, (N)
          4     2.03860752000E+008                                                     F               0         HydroFzi, (N)
          5    -1.17832456000E+008                                                     F               0         HydroMxi, (N-m)
          6    -2.02203200000E+008                                                     F               0         HydroMyi, (N-m)
          7     2.54345250000E+005                                                     F               0         HydroMzi, (N-m)


Linearized state matrices:

D: 7 x 37
     0.00000000000E+000   0.00000000000E+000   0.00000000000E+000   0.00000000000E+000   0.00000000000E+000   0.00000000000E+000   0.00000000000E+000   0.00000000000E+000   0.00000000000E+000   0.00000000000E+000   0.00000000000E+000   0.00000000000E+000   0.00000000000E+000   0.00000000000E+000   0.00000000000E+000   0.00000000000E+000   0.00000000000E+000   0.00000000000E+000   0.00000000000E+000   0.00000000000E+000   0.00000000000E+000   0.00000000000E+000   0.00000000000E+000   0.00000000000E+000   0.00000000000E+000   0.00000000000E+000   0.00000000000E+000   0.00000000000E+000   0.00000000000E+000   0.00000000000E+000   0.00000000000E+000   0.00000000000E+000   0.00000000000E+000   0.00000000000E+000   0.00000000000E+000   0.00000000000E+000   0.00000000000E+000
    -6.86000294576E+003   0.00000000000E+000   0.00000000000E+000   0.00000000000E+000   0.00000000000E+000   0.00000000000E+000  -2.82213414529E+005   0.00000000000E+000   0.00000000000E+000   0.00000000000E+000   0.00000000000E+000   0.00000000000E+000  -9.38083896931E+006   0.00000000000E+000   1.99671965511E+001   0.00000000000E+000   9.82680280140E+007   0.00000000000E+000   0.00000000000E+000   0.00000000000E+000   0.00000000000E+000   0.00000000000E+000   0.00000000000E+000   0.00000000000E+000   0.00000000000E+000   0.00000000000E+000   0.00000000000E+000   0.00000000000E+000   0.00000000000E+000   0.00000000000E+000   0.00000000000E+000   0.00000000000E+000   0.00000000000E+000   0.00000000000E+000   0.00000000000E+000   0.00000000000E+000   0.00000000000E+000
     0.00000000000E+000   0.00000000000E+000   0.00000000000E+000   0.00000000000E+000   0.00000000000E+000   0.00000000000E+000   0.00000000000E+000  -2.82270998070E+005   0.00000000000E+000   0.00000000000E+000   0.00000000000E+000   0.00000000000E+000   0.00000000000E+000  -9.38088807999E+006   0.00000000000E+000  -9.82662446828E+007   0.00000000000E+000   1.78568117338E+003   0.00000000000E+000   0.00000000000E+000   0.00000000000E+000   0.00000000000E+000   0.00000000000E+000   0.00000000000E+000   0.00000000000E+000   0.00000000000E+000   0.00000000000E+000   0.00000000000E+000   0.00000000000E+000   0.00000000000E+000   0.00000000000E+000   0.00000000000E+000   0.00000000000E+000   0.00000000000E+000   0.00000000000E+000   0.00000000000E+000   0.00000000000E+000
     0.00000000000E+000   0.00000000000E+000  -4.39481570682E+006   0.00000000000E+000   3.66692991724E+003   0.00000000000E+000   0.00000000000E+000   0.00000000000E+000  -8.07510389424E+005   0.00000000000E+000   0.00000000000E+000   0.00000000000E+000   0.00000000000E+000   0.00000000000E+000  -2.41346206440E+007   0.00000000000E+000   1.76471002267E+004   0.00000000000E+000   0.00000000000E+000   0.00000000000E+000   0.00000000000E+000   0.00000000000E+000   0.00000000000E+000   0.00000000000E+000   0.00000000000E+000   0.00000000000E+000   0.00000000000E+000   0.00000000000E+000   0.00000000000E+000   0.00000000000E+000   0.00000000000E+000   0.00000000000E+000   0.00000000000E+000   0.00000000000E+000   0.00000000000E+000   0.00000000000E+000   0.00000000000E+000
     0.00000000000E+000   2.03860784463E+008  -1.10335307021E+004  -2.13421463291E+009   0.00000000000E+000   8.90376420530E+004   0.00000000000E+000   0.00000000000E+000   0.00000000000E+000  -2.78330706489E+009   0.00000000000E+000   0.00000000000E+000   0.00000000000E+000  -9.82009442628E+007   0.00000000000E+000  -1.13246530020E+010   0.00000000000E+000   5.29413006802E+004   0.00000000000E+000  -2.03860784463E+008   1.10335307021E+004   0.00000000000E+000   0.00000000000E+000   0.00000000000E+000   0.00000000000E+000   0.00000000000E+000   0.00000000000E+000   0.00000000000E+000   0.00000000000E+000   0.00000000000E+000   0.00000000000E+000   0.00000000000E+000   0.00000000000E+000   0.00000000000E+000   0.00000000000E+000   0.00000000000E+000   0.00000000000E+000
    -2.03860686242E+008   0.00000000000E+000  -4.00088264627E+004   0.00000000000E+000  -2.13398086613E+009   0.00000000000E+000   0.00000000000E+000   0.00000000000E+000   0.00000000000E+000   0.00000000000E+000  -2.78341042647E+009   0.00000000000E+000   9.82036617200E+007   0.00000000000E+000   1.93168638404E+004   0.00000000000E+000  -1.13240534590E+010   0.00000000000E+000   2.03860686242E+008   0.00000000000E+000   4.38721992308E+004   0.00000000000E+000   0.00000000000E+000   0.00000000000E+000   0.00000000000E+000   0.00000000000E+000   0.00000000000E+000   0.00000000000E+000   0.00000000000E+000   0.00000000000E+000   0.00000000000E+000   0.00000000000E+000   0.00000000000E+000   0.00000000000E+000   0.00000000000E+000   0.00000000000E+000   0.00000000000E+000
     1.09805193139E+004   4.39268732197E+004   0.00000000000E+000   0.00000000000E+000   0.00000000000E+000   0.00000000000E+000   0.00000000000E+000   0.00000000000E+000   0.00000000000E+000   0.00000000000E+000   0.00000000000E+000  -2.51327388742E+009   0.00000000000E+000   1.55370047911E+003   0.00000000000E+000   4.40407593625E+004   0.00000000000E+000  -1.95913504720E+010  -1.09805193139E+004  -4.39268732197E+004   0.00000000000E+000   0.00000000000E+000   0.00000000000E+000   0.00000000000E+000   0.00000000000E+000   0.00000000000E+000   0.00000000000E+000   0.00000000000E+000   0.00000000000E+000   0.00000000000E+000   0.00000000000E+000   0.00000000000E+000   0.00000000000E+000   0.00000000000E+000   0.00000000000E+000   0.00000000000E+000   0.00000000000E+000
