
Linearized model: Predictions were generated on 06-Feb-2024 at 10:15:48 using OpenFAST, compiled as a 64-bit application using single precision at commit v3.5.1
 linked with  NWTC Subroutine Library; ElastoDyn; InflowWind; AeroDyn; ServoDyn; HydroDyn; MAP++ (<1.20.10>, <Oct-20-2023>)

Description from the FAST input file: CCT-9 Campign 4 model. Input files to be run with OpenFAST 3.5.0. GitHub branch from Lu Wang (https://github.com/luwang00/openfast/tree/dev) compiled on March 7, 2023.

Simulation information:
   Simulation time:                  1004.4750 s
   Rotor Speed:                         1.0404 rad/s
   Azimuth:                             5.7019 rad
   Wind Speed:                         12.0000 m/s
   Number of continuous states:        22
   Number of discrete states:           0
   Number of constraint states:         0
   Number of inputs:                 3988
   Number of outputs:                  36
   Jacobians included in this file?    No

Order of continuous states:
   Row/Column Operating Point                     Rotating Frame? Derivative Order Description
   ---------- ---------------                     --------------- ---------------- -----------
          1    1.229E+01                                 F               2         ED Platform horizontal surge translation DOF (internal DOF index = DOF_Sg), m
          2   -2.196E-01                                 F               2         ED Platform horizontal sway translation DOF (internal DOF index = DOF_Sw), m
          3   -2.595E-01                                 F               2         ED Platform vertical heave translation DOF (internal DOF index = DOF_Hv), m
          4    5.165E-02                                 F               2         ED Platform roll tilt rotation DOF (internal DOF index = DOF_R), rad
          5    1.570E-01                                 F               2         ED Platform pitch tilt rotation DOF (internal DOF index = DOF_P), rad
          6    9.674E-03                                 F               2         ED Platform yaw rotation DOF (internal DOF index = DOF_Y), rad
          7    1.083E+00                                 F               2         ED 1st tower fore-aft bending mode DOF (internal DOF index = DOF_TFA1), m
          8    2.182E-01                                 F               2         ED 1st tower side-to-side bending mode DOF (internal DOF index = DOF_TSS1), m
          9    1.608E-03                                 F               2         ED 2nd tower fore-aft bending mode DOF (internal DOF index = DOF_TFA2), m
         10    9.491E-05                                 F               2         ED 2nd tower side-to-side bending mode DOF (internal DOF index = DOF_TSS2), m
         11    4.131E+00                                 F               2         ED Variable speed generator DOF (internal DOF index = DOF_GeAz), rad
         12   -1.017E-03                                 F               2         ED First time derivative of Platform horizontal surge translation DOF (internal DOF index = DOF_Sg), m/s
         13   -1.774E-04                                 F               2         ED First time derivative of Platform horizontal sway translation DOF (internal DOF index = DOF_Sw), m/s
         14    2.221E-03                                 F               2         ED First time derivative of Platform vertical heave translation DOF (internal DOF index = DOF_Hv), m/s
         15    1.226E-03                                 F               2         ED First time derivative of Platform roll tilt rotation DOF (internal DOF index = DOF_R), rad/s
         16   -9.370E-05                                 F               2         ED First time derivative of Platform pitch tilt rotation DOF (internal DOF index = DOF_P), rad/s
         17   -1.093E-04                                 F               2         ED First time derivative of Platform yaw rotation DOF (internal DOF index = DOF_Y), rad/s
         18   -3.287E-04                                 F               2         ED First time derivative of 1st tower fore-aft bending mode DOF (internal DOF index = DOF_TFA1), m/s
         19    7.022E-03                                 F               2         ED First time derivative of 1st tower side-to-side bending mode DOF (internal DOF index = DOF_TSS1), m/s
         20   -8.332E-06                                 F               2         ED First time derivative of 2nd tower fore-aft bending mode DOF (internal DOF index = DOF_TFA2), m/s
         21    1.957E-06                                 F               2         ED First time derivative of 2nd tower side-to-side bending mode DOF (internal DOF index = DOF_TSS2), m/s
         22    1.040E+00                                 F               2         ED First time derivative of Variable speed generator DOF (internal DOF index = DOF_GeAz), rad/s

Order of continuous state derivatives:
   Row/Column Operating Point                     Rotating Frame? Derivative Order Description
   ---------- ---------------                     --------------- ---------------- -----------
          1   -1.017E-03                                 F               2         First time derivative of ED Platform horizontal surge translation DOF (internal DOF index = DOF_Sg), m/s
          2   -1.774E-04                                 F               2         First time derivative of ED Platform horizontal sway translation DOF (internal DOF index = DOF_Sw), m/s
          3    2.221E-03                                 F               2         First time derivative of ED Platform vertical heave translation DOF (internal DOF index = DOF_Hv), m/s
          4    1.226E-03                                 F               2         First time derivative of ED Platform roll tilt rotation DOF (internal DOF index = DOF_R), rad/s
          5   -9.370E-05                                 F               2         First time derivative of ED Platform pitch tilt rotation DOF (internal DOF index = DOF_P), rad/s
          6   -1.093E-04                                 F               2         First time derivative of ED Platform yaw rotation DOF (internal DOF index = DOF_Y), rad/s
          7   -3.287E-04                                 F               2         First time derivative of ED 1st tower fore-aft bending mode DOF (internal DOF index = DOF_TFA1), m/s
          8    7.022E-03                                 F               2         First time derivative of ED 1st tower side-to-side bending mode DOF (internal DOF index = DOF_TSS1), m/s
          9   -8.332E-06                                 F               2         First time derivative of ED 2nd tower fore-aft bending mode DOF (internal DOF index = DOF_TFA2), m/s
         10    1.957E-06                                 F               2         First time derivative of ED 2nd tower side-to-side bending mode DOF (internal DOF index = DOF_TSS2), m/s
         11    1.040E+00                                 F               2         First time derivative of ED Variable speed generator DOF (internal DOF index = DOF_GeAz), rad/s
         12   -1.622E-04                                 F               2         First time derivative of ED First time derivative of Platform horizontal surge translation DOF (internal DOF index = DOF_Sg), m/s/s
         13    5.711E-04                                 F               2         First time derivative of ED First time derivative of Platform horizontal sway translation DOF (internal DOF index = DOF_Sw), m/s/s
         14    1.439E-03                                 F               2         First time derivative of ED First time derivative of Platform vertical heave translation DOF (internal DOF index = DOF_Hv), m/s/s
         15   -3.753E-04                                 F               2         First time derivative of ED First time derivative of Platform roll tilt rotation DOF (internal DOF index = DOF_R), rad/s/s
         16   -3.350E-05                                 F               2         First time derivative of ED First time derivative of Platform pitch tilt rotation DOF (internal DOF index = DOF_P), rad/s/s
         17    1.447E-04                                 F               2         First time derivative of ED First time derivative of Platform yaw rotation DOF (internal DOF index = DOF_Y), rad/s/s
         18    6.129E-03                                 F               2         First time derivative of ED First time derivative of 1st tower fore-aft bending mode DOF (internal DOF index = DOF_TFA1), m/s/s
         19   -1.366E-03                                 F               2         First time derivative of ED First time derivative of 1st tower side-to-side bending mode DOF (internal DOF index = DOF_TSS1), m/s/s
         20    2.455E-05                                 F               2         First time derivative of ED First time derivative of 2nd tower fore-aft bending mode DOF (internal DOF index = DOF_TFA2), m/s/s
         21   -4.989E-06                                 F               2         First time derivative of ED First time derivative of 2nd tower side-to-side bending mode DOF (internal DOF index = DOF_TSS2), m/s/s
         22    3.704E-04                                 F               2         First time derivative of ED First time derivative of Variable speed generator DOF (internal DOF index = DOF_GeAz), rad/s/s

Order of inputs:
     Column   Operating Point                     Rotating Frame? Derivative Order Description
   ---------- ---------------                     --------------- ---------------- -----------
          1   -1.080E+01                                 F               0         IfW X-component position of node 1 (hub), m
          2    0.000E+00                                 F               0         IfW Y-component position of node 1 (hub), m
          3    1.497E+02                                 F               0         IfW Z-component position of node 1 (hub), m
          4    2.728E+01                                 F               0         IfW X-component position of node 2 (blade 1, node 1), m
          5   -5.312E+00                                 F               0         IfW Y-component position of node 2 (blade 1, node 1), m
          6    1.537E+02                                 F               0         IfW Z-component position of node 2 (blade 1, node 1), m
          7    2.757E+01                                 F               0         IfW X-component position of node 3 (blade 1, node 2), m
          8   -4.637E+00                                 F               0         IfW Y-component position of node 3 (blade 1, node 2), m
          9    1.548E+02                                 F               0         IfW Z-component position of node 3 (blade 1, node 2), m
         10    3.162E+01                                 F               0         IfW X-component position of node 4 (blade 1, node 3), m
         11    4.544E+00                                 F               0         IfW Y-component position of node 4 (blade 1, node 3), m
         12    1.699E+02                                 F               0         IfW Z-component position of node 4 (blade 1, node 3), m
         13    3.248E+01                                 F               0         IfW X-component position of node 5 (blade 1, node 4), m
         14    6.500E+00                                 F               0         IfW Y-component position of node 5 (blade 1, node 4), m
         15    1.732E+02                                 F               0         IfW Z-component position of node 5 (blade 1, node 4), m
         16    3.334E+01                                 F               0         IfW X-component position of node 6 (blade 1, node 5), m
         17    8.457E+00                                 F               0         IfW Y-component position of node 6 (blade 1, node 5), m
         18    1.764E+02                                 F               0         IfW Z-component position of node 6 (blade 1, node 5), m
         19    3.420E+01                                 F               0         IfW X-component position of node 7 (blade 1, node 6), m
         20    1.041E+01                                 F               0         IfW Y-component position of node 7 (blade 1, node 6), m
         21    1.796E+02                                 F               0         IfW Z-component position of node 7 (blade 1, node 6), m
         22    3.506E+01                                 F               0         IfW X-component position of node 8 (blade 1, node 7), m
         23    1.237E+01                                 F               0         IfW Y-component position of node 8 (blade 1, node 7), m
         24    1.828E+02                                 F               0         IfW Z-component position of node 8 (blade 1, node 7), m
         25    3.593E+01                                 F               0         IfW X-component position of node 9 (blade 1, node 8), m
         26    1.433E+01                                 F               0         IfW Y-component position of node 9 (blade 1, node 8), m
         27    1.861E+02                                 F               0         IfW Z-component position of node 9 (blade 1, node 8), m
         28    3.679E+01                                 F               0         IfW X-component position of node 10 (blade 1, node 9), m
         29    1.628E+01                                 F               0         IfW Y-component position of node 10 (blade 1, node 9), m
         30    1.893E+02                                 F               0         IfW Z-component position of node 10 (blade 1, node 9), m
         31    3.765E+01                                 F               0         IfW X-component position of node 11 (blade 1, node 10), m
         32    1.824E+01                                 F               0         IfW Y-component position of node 11 (blade 1, node 10), m
         33    1.925E+02                                 F               0         IfW Z-component position of node 11 (blade 1, node 10), m
         34    3.851E+01                                 F               0         IfW X-component position of node 12 (blade 1, node 11), m
         35    2.019E+01                                 F               0         IfW Y-component position of node 12 (blade 1, node 11), m
         36    1.957E+02                                 F               0         IfW Z-component position of node 12 (blade 1, node 11), m
         37    3.937E+01                                 F               0         IfW X-component position of node 13 (blade 1, node 12), m
         38    2.215E+01                                 F               0         IfW Y-component position of node 13 (blade 1, node 12), m
         39    1.990E+02                                 F               0         IfW Z-component position of node 13 (blade 1, node 12), m
         40    4.023E+01                                 F               0         IfW X-component position of node 14 (blade 1, node 13), m
         41    2.411E+01                                 F               0         IfW Y-component position of node 14 (blade 1, node 13), m
         42    2.022E+02                                 F               0         IfW Z-component position of node 14 (blade 1, node 13), m
         43    4.110E+01                                 F               0         IfW X-component position of node 15 (blade 1, node 14), m
         44    2.606E+01                                 F               0         IfW Y-component position of node 15 (blade 1, node 14), m
         45    2.054E+02                                 F               0         IfW Z-component position of node 15 (blade 1, node 14), m
         46    4.196E+01                                 F               0         IfW X-component position of node 16 (blade 1, node 15), m
         47    2.802E+01                                 F               0         IfW Y-component position of node 16 (blade 1, node 15), m
         48    2.086E+02                                 F               0         IfW Z-component position of node 16 (blade 1, node 15), m
         49    4.282E+01                                 F               0         IfW X-component position of node 17 (blade 1, node 16), m
         50    2.997E+01                                 F               0         IfW Y-component position of node 17 (blade 1, node 16), m
         51    2.118E+02                                 F               0         IfW Z-component position of node 17 (blade 1, node 16), m
         52    4.368E+01                                 F               0         IfW X-component position of node 18 (blade 1, node 17), m
         53    3.193E+01                                 F               0         IfW Y-component position of node 18 (blade 1, node 17), m
         54    2.151E+02                                 F               0         IfW Z-component position of node 18 (blade 1, node 17), m
         55    4.454E+01                                 F               0         IfW X-component position of node 19 (blade 1, node 18), m
         56    3.389E+01                                 F               0         IfW Y-component position of node 19 (blade 1, node 18), m
         57    2.183E+02                                 F               0         IfW Z-component position of node 19 (blade 1, node 18), m
         58    4.540E+01                                 F               0         IfW X-component position of node 20 (blade 1, node 19), m
         59    3.584E+01                                 F               0         IfW Y-component position of node 20 (blade 1, node 19), m
         60    2.215E+02                                 F               0         IfW Z-component position of node 20 (blade 1, node 19), m
         61    4.627E+01                                 F               0         IfW X-component position of node 21 (blade 1, node 20), m
         62    3.780E+01                                 F               0         IfW Y-component position of node 21 (blade 1, node 20), m
         63    2.247E+02                                 F               0         IfW Z-component position of node 21 (blade 1, node 20), m
         64    4.713E+01                                 F               0         IfW X-component position of node 22 (blade 1, node 21), m
         65    3.976E+01                                 F               0         IfW Y-component position of node 22 (blade 1, node 21), m
         66    2.280E+02                                 F               0         IfW Z-component position of node 22 (blade 1, node 21), m
         67    4.799E+01                                 F               0         IfW X-component position of node 23 (blade 1, node 22), m
         68    4.171E+01                                 F               0         IfW Y-component position of node 23 (blade 1, node 22), m
         69    2.312E+02                                 F               0         IfW Z-component position of node 23 (blade 1, node 22), m
         70    4.885E+01                                 F               0         IfW X-component position of node 24 (blade 1, node 23), m
         71    4.367E+01                                 F               0         IfW Y-component position of node 24 (blade 1, node 23), m
         72    2.344E+02                                 F               0         IfW Z-component position of node 24 (blade 1, node 23), m
         73    4.971E+01                                 F               0         IfW X-component position of node 25 (blade 1, node 24), m
         74    4.562E+01                                 F               0         IfW Y-component position of node 25 (blade 1, node 24), m
         75    2.376E+02                                 F               0         IfW Z-component position of node 25 (blade 1, node 24), m
         76    5.057E+01                                 F               0         IfW X-component position of node 26 (blade 1, node 25), m
         77    4.758E+01                                 F               0         IfW Y-component position of node 26 (blade 1, node 25), m
         78    2.409E+02                                 F               0         IfW Z-component position of node 26 (blade 1, node 25), m
         79    5.144E+01                                 F               0         IfW X-component position of node 27 (blade 1, node 26), m
         80    4.954E+01                                 F               0         IfW Y-component position of node 27 (blade 1, node 26), m
         81    2.441E+02                                 F               0         IfW Z-component position of node 27 (blade 1, node 26), m
         82    5.230E+01                                 F               0         IfW X-component position of node 28 (blade 1, node 27), m
         83    5.149E+01                                 F               0         IfW Y-component position of node 28 (blade 1, node 27), m
         84    2.473E+02                                 F               0         IfW Z-component position of node 28 (blade 1, node 27), m
         85    5.303E+01                                 F               0         IfW X-component position of node 29 (blade 1, node 28), m
         86    5.315E+01                                 F               0         IfW Y-component position of node 29 (blade 1, node 28), m
         87    2.500E+02                                 F               0         IfW Z-component position of node 29 (blade 1, node 28), m
         88    2.616E+01                                 F               0         IfW X-component position of node 30 (blade 2, node 1), m
         89   -1.365E+01                                 F               0         IfW Y-component position of node 30 (blade 2, node 1), m
         90    1.491E+02                                 F               0         IfW Z-component position of node 30 (blade 2, node 1), m
         91    2.619E+01                                 F               0         IfW X-component position of node 31 (blade 2, node 2), m
         92   -1.499E+01                                 F               0         IfW Y-component position of node 31 (blade 2, node 2), m
         93    1.491E+02                                 F               0         IfW Z-component position of node 31 (blade 2, node 2), m
         94    2.656E+01                                 F               0         IfW X-component position of node 32 (blade 2, node 3), m
         95   -3.314E+01                                 F               0         IfW Y-component position of node 32 (blade 2, node 3), m
         96    1.491E+02                                 F               0         IfW Z-component position of node 32 (blade 2, node 3), m
         97    2.664E+01                                 F               0         IfW X-component position of node 33 (blade 2, node 4), m
         98   -3.700E+01                                 F               0         IfW Y-component position of node 33 (blade 2, node 4), m
         99    1.491E+02                                 F               0         IfW Z-component position of node 33 (blade 2, node 4), m
        100    2.672E+01                                 F               0         IfW X-component position of node 34 (blade 2, node 5), m
        101   -4.087E+01                                 F               0         IfW Y-component position of node 34 (blade 2, node 5), m
        102    1.491E+02                                 F               0         IfW Z-component position of node 34 (blade 2, node 5), m
        103    2.680E+01                                 F               0         IfW X-component position of node 35 (blade 2, node 6), m
        104   -4.474E+01                                 F               0         IfW Y-component position of node 35 (blade 2, node 6), m
        105    1.491E+02                                 F               0         IfW Z-component position of node 35 (blade 2, node 6), m
        106    2.688E+01                                 F               0         IfW X-component position of node 36 (blade 2, node 7), m
        107   -4.860E+01                                 F               0         IfW Y-component position of node 36 (blade 2, node 7), m
        108    1.491E+02                                 F               0         IfW Z-component position of node 36 (blade 2, node 7), m
        109    2.696E+01                                 F               0         IfW X-component position of node 37 (blade 2, node 8), m
        110   -5.247E+01                                 F               0         IfW Y-component position of node 37 (blade 2, node 8), m
        111    1.491E+02                                 F               0         IfW Z-component position of node 37 (blade 2, node 8), m
        112    2.704E+01                                 F               0         IfW X-component position of node 38 (blade 2, node 9), m
        113   -5.634E+01                                 F               0         IfW Y-component position of node 38 (blade 2, node 9), m
        114    1.491E+02                                 F               0         IfW Z-component position of node 38 (blade 2, node 9), m
        115    2.712E+01                                 F               0         IfW X-component position of node 39 (blade 2, node 10), m
        116   -6.020E+01                                 F               0         IfW Y-component position of node 39 (blade 2, node 10), m
        117    1.491E+02                                 F               0         IfW Z-component position of node 39 (blade 2, node 10), m
        118    2.720E+01                                 F               0         IfW X-component position of node 40 (blade 2, node 11), m
        119   -6.407E+01                                 F               0         IfW Y-component position of node 40 (blade 2, node 11), m
        120    1.492E+02                                 F               0         IfW Z-component position of node 40 (blade 2, node 11), m
        121    2.728E+01                                 F               0         IfW X-component position of node 41 (blade 2, node 12), m
        122   -6.794E+01                                 F               0         IfW Y-component position of node 41 (blade 2, node 12), m
        123    1.492E+02                                 F               0         IfW Z-component position of node 41 (blade 2, node 12), m
        124    2.736E+01                                 F               0         IfW X-component position of node 42 (blade 2, node 13), m
        125   -7.180E+01                                 F               0         IfW Y-component position of node 42 (blade 2, node 13), m
        126    1.492E+02                                 F               0         IfW Z-component position of node 42 (blade 2, node 13), m
        127    2.744E+01                                 F               0         IfW X-component position of node 43 (blade 2, node 14), m
        128   -7.567E+01                                 F               0         IfW Y-component position of node 43 (blade 2, node 14), m
        129    1.492E+02                                 F               0         IfW Z-component position of node 43 (blade 2, node 14), m
        130    2.752E+01                                 F               0         IfW X-component position of node 44 (blade 2, node 15), m
        131   -7.954E+01                                 F               0         IfW Y-component position of node 44 (blade 2, node 15), m
        132    1.492E+02                                 F               0         IfW Z-component position of node 44 (blade 2, node 15), m
        133    2.760E+01                                 F               0         IfW X-component position of node 45 (blade 2, node 16), m
        134   -8.341E+01                                 F               0         IfW Y-component position of node 45 (blade 2, node 16), m
        135    1.492E+02                                 F               0         IfW Z-component position of node 45 (blade 2, node 16), m
        136    2.768E+01                                 F               0         IfW X-component position of node 46 (blade 2, node 17), m
        137   -8.727E+01                                 F               0         IfW Y-component position of node 46 (blade 2, node 17), m
        138    1.492E+02                                 F               0         IfW Z-component position of node 46 (blade 2, node 17), m
        139    2.776E+01                                 F               0         IfW X-component position of node 47 (blade 2, node 18), m
        140   -9.114E+01                                 F               0         IfW Y-component position of node 47 (blade 2, node 18), m
        141    1.492E+02                                 F               0         IfW Z-component position of node 47 (blade 2, node 18), m
        142    2.784E+01                                 F               0         IfW X-component position of node 48 (blade 2, node 19), m
        143   -9.501E+01                                 F               0         IfW Y-component position of node 48 (blade 2, node 19), m
        144    1.492E+02                                 F               0         IfW Z-component position of node 48 (blade 2, node 19), m