
Linearized model: Predictions were generated on 13-Feb-2024 at 12:12:09 using OpenFAST, compiled as a 64-bit application using single precision at commit v3.5.1
 linked with  NWTC Subroutine Library; ElastoDyn; InflowWind; AeroDyn; ServoDyn; HydroDyn; MAP++ (<1.20.10>, <Oct-20-2023>)

Description from the FAST input file: CCT-9 Campign 4 model. Input files to be run with OpenFAST 3.5.0. GitHub branch from Lu Wang (https://github.com/luwang00/openfast/tree/dev) compiled on March 7, 2023.

Simulation information:
   Simulation time:                   777.5000 s
   Rotor Speed:                         0.7917 rad/s
   Azimuth:                             5.5945 rad
   Wind Speed:                         24.0000 m/s
   Number of continuous states:         0
   Number of discrete states:           0
   Number of constraint states:         0
   Number of inputs:                 1746
   Number of outputs:                   4
   Jacobians included in this file?    No

Order of inputs:
     Column   Operating Point                                                   Rotating Frame? Derivative Order Description
   ---------- ---------------                                                   --------------- ---------------- -----------
          1     8.55986595154E+000                                                     F               0         Tower X translation displacement, node 1, m
          2    -1.82108807564E+000                                                     F               0         Tower Y translation displacement, node 1, m
          3    -2.28859290481E-001                                                     F               0         Tower Z translation displacement, node 1, m
          4     9.73394680023E+000                                                     F               0         Tower X translation displacement, node 2, m
          5    -2.49702215195E+000                                                     F               0         Tower Y translation displacement, node 2, m
          6    -3.03362816572E-001                                                     F               0         Tower Z translation displacement, node 2, m
          7     1.09256610870E+001                                                     F               0         Tower X translation displacement, node 3, m
          8    -3.18049979210E+000                                                     F               0         Tower Y translation displacement, node 3, m
          9    -3.79978597164E-001                                                     F               0         Tower Z translation displacement, node 3, m
         10     1.21305313110E+001                                                     F               0         Tower X translation displacement, node 4, m
         11    -3.87018752098E+000                                                     F               0         Tower Y translation displacement, node 4, m
         12    -4.58225607872E-001                                                     F               0         Tower Z translation displacement, node 4, m
         13     1.33460493088E+001                                                     F               0         Tower X translation displacement, node 5, m
         14    -4.56549072266E+000                                                     F               0         Tower Y translation displacement, node 5, m
         15    -5.37836015224E-001                                                     F               0         Tower Z translation displacement, node 5, m
         16     1.45698785782E+001                                                     F               0         Tower X translation displacement, node 6, m
         17    -5.26577901840E+000                                                     F               0         Tower Y translation displacement, node 6, m
         18    -6.18566513062E-001                                                     F               0         Tower Z translation displacement, node 6, m
         19     1.57995338440E+001                                                     F               0         Tower X translation displacement, node 7, m
         20    -5.97007226944E+000                                                     F               0         Tower Y translation displacement, node 7, m
         21    -7.00094103813E-001                                                     F               0         Tower Z translation displacement, node 7, m
         22     1.70338230133E+001                                                     F               0         Tower X translation displacement, node 8, m
         23    -6.67805242538E+000                                                     F               0         Tower Y translation displacement, node 8, m
         24    -7.82311260700E-001                                                     F               0         Tower Z translation displacement, node 8, m
         25     1.82712097168E+001                                                     F               0         Tower X translation displacement, node 9, m
         26    -7.38895893097E+000                                                     F               0         Tower Y translation displacement, node 9, m
         27    -8.65000069141E-001                                                     F               0         Tower Z translation displacement, node 9, m
         28     1.95104560852E+001                                                     F               0         Tower X translation displacement, node 10, m
         29    -8.10198211670E+000                                                     F               0         Tower Y translation displacement, node 10, m
         30    -9.48005557060E-001                                                     F               0         Tower Z translation displacement, node 10, m
         31     2.07505950928E+001                                                     F               0         Tower X translation displacement, node 11, m
         32    -8.81632995605E+000                                                     F               0         Tower Y translation displacement, node 11, m
         33    -1.03117525578E+000                                                     F               0         Tower Z translation displacement, node 11, m
         34     9.95459556580E-001,  -6.63971761242E-003,  -9.49538424611E-002         F               0         Tower X orientation angle, node 1, rad
         35     1.17728263140E-002,   9.98493015766E-001,   5.36014214158E-002         F               0         Tower Y orientation angle, node 1, rad
         36     9.44548472762E-002,  -5.44759221375E-002,   9.94037568569E-001         F               0         Tower Z orientation angle, node 1, rad
         37     9.95329916477E-001,  -6.56510610133E-003,  -9.63081717491E-002         F               0         Tower X orientation angle, node 2, rad
         38     1.18257040158E-002,   9.98462557793E-001,   5.41539080441E-002         F               0         Tower Y orientation angle, node 2, rad
         39     9.58045795560E-002,  -5.50399161875E-002,   9.93877291679E-001         F               0         Tower Z orientation angle, node 2, rad
         40     9.95216310024E-001,  -6.49990746751E-003,  -9.74794030190E-002         F               0         Tower X orientation angle, node 3, rad
         41     1.18754496798E-002,   9.98434007168E-001,   5.46670630574E-002         F               0         Tower Y orientation angle, node 3, rad
         42     9.69714224339E-002,  -5.55631630123E-002,   9.93735015392E-001         F               0         Tower Z orientation angle, node 3, rad
         43     9.95121240616E-001,  -6.44537573680E-003,  -9.84491035342E-002         F               0         Tower X orientation angle, node 4, rad
         44     1.19213452563E-002,   9.98407721519E-001,   5.51358051598E-002         F               0         Tower Y orientation angle, node 4, rad
         45     9.79369729757E-002,  -5.60404546559E-002,   9.93613541126E-001         F               0         Tower Z orientation angle, node 4, rad
         46     9.95044231415E-001,  -6.40119472519E-003,  -9.92268845439E-002         F               0         Tower X orientation angle, node 5, rad
         47     1.19630042464E-002,   9.98383760452E-001,   5.55582232773E-002         F               0         Tower Y orientation angle, node 5, rad
         48     9.87108722329E-002,  -5.64699433744E-002,   9.93512630463E-001         F               0         Tower Z orientation angle, node 5, rad
         49     9.94984328747E-001,  -6.36669201776E-003,  -9.98281389475E-002         F               0         Tower X orientation angle, node 6, rad
         50     1.19999740273E-002,   9.98362481594E-001,   5.59313148260E-002         F               0         Tower Y orientation angle, node 6, rad
         51     9.93085727096E-002,  -5.68487159908E-002,   9.93431448936E-001         F               0         Tower Z orientation angle, node 6, rad
         52     9.94940936565E-001,  -6.34156446904E-003,  -1.00261338055E-001         F               0         Tower X orientation angle, node 7, rad
         53     1.20312981308E-002,   9.98344421387E-001,   5.62466643751E-002         F               0         Tower Y orientation angle, node 7, rad
         54     9.97386500239E-002,  -5.71683831513E-002,   9.93369996548E-001         F               0         Tower Z orientation angle, node 7, rad
         55     9.94910538197E-001,  -6.32383627817E-003,  -1.00563675165E-001         F               0         Tower X orientation angle, node 8, rad
         56     1.20569393039E-002,   9.98329520226E-001,   5.65045326948E-002         F               0         Tower Y orientation angle, node 8, rad
         57     1.00038364530E-001,  -5.74294440448E-002,   9.93324816227E-001         F               0         Tower Z orientation angle, node 8, rad
         58     9.94890868664E-001,  -6.31227111444E-003,  -1.00758656859E-001         F               0         Tower X orientation angle, node 9, rad
         59     1.20765073225E-002,   9.98318135738E-001,   5.67013509572E-002         F               0         Tower Y orientation angle, node 9, rad
         60     1.00231282413E-001,  -5.76284676790E-002,   9.93293821812E-001         F               0         Tower Z orientation angle, node 9, rad
         61     9.94879722595E-001,  -6.30564289168E-003,  -1.00869014859E-001         F               0         Tower X orientation angle, node 10, rad
         62     1.20897097513E-002,   9.98310446739E-001,   5.68342842162E-002         F               0         Tower Y orientation angle, node 10, rad
         63     1.00340209901E-001,  -5.77627532184E-002,   9.93275046349E-001         F               0         Tower Z orientation angle, node 10, rad
         64     9.94874596596E-001,  -6.30253367126E-003,  -1.00920051336E-001         F               0         Tower X orientation angle, node 11, rad
         65     1.20970737189E-002,   9.98306095600E-001,   5.69085478783E-002         F               0         Tower Y orientation angle, node 11, rad
         66     1.00390434265E-001,  -5.78377023339E-002,   9.93265628815E-001         F               0         Tower Z orientation angle, node 11, rad
         67     2.03410512768E-003                                                     F               0         Tower X translation velocity, node 1, m/s
         68     6.69789174572E-003                                                     F               0         Tower Y translation velocity, node 1, m/s
         69    -4.91152284667E-003                                                     F               0         Tower Z translation velocity, node 1, m/s
         70     1.91316427663E-003                                                     F               0         Tower X translation velocity, node 2, m/s
         71     8.34797602147E-003                                                     F               0         Tower Y translation velocity, node 2, m/s
         72    -4.80910856277E-003                                                     F               0         Tower Z translation velocity, node 2, m/s
         73     1.36572076008E-003                                                     F               0         Tower X translation velocity, node 3, m/s
         74     9.33919940144E-003                                                     F               0         Tower Y translation velocity, node 3, m/s
         75    -4.70082415268E-003                                                     F               0         Tower Z translation velocity, node 3, m/s
         76     6.05911656749E-004                                                     F               0         Tower X translation velocity, node 4, m/s
         77     9.81167610735E-003                                                     F               0         Tower Y translation velocity, node 4, m/s
         78    -4.59975376725E-003                                                     F               0         Tower Z translation velocity, node 4, m/s
         79    -2.18341287109E-004                                                     F               0         Tower X translation velocity, node 5, m/s
         80     9.83681250364E-003                                                     F               0         Tower Y translation velocity, node 5, m/s
         81    -4.51676454395E-003                                                     F               0         Tower Z translation velocity, node 5, m/s
         82    -9.82998055406E-004                                                     F               0         Tower X translation velocity, node 6, m/s
         83     9.48440656066E-003                                                     F               0         Tower Y translation velocity, node 6, m/s
         84    -4.46068402380E-003                                                     F               0         Tower Z translation velocity, node 6, m/s
         85    -1.61195453256E-003                                                     F               0         Tower X translation velocity, node 7, m/s
         86     8.84345546365E-003                                                     F               0         Tower Y translation velocity, node 7, m/s
         87    -4.43448638543E-003                                                     F               0         Tower Z translation velocity, node 7, m/s
         88    -2.03973590396E-003                                                     F               0         Tower X translation velocity, node 8, m/s
         89     7.94880557805E-003                                                     F               0         Tower Y translation velocity, node 8, m/s
         90    -4.44307550788E-003                                                     F               0         Tower Z translation velocity, node 8, m/s
         91    -2.24605412222E-003                                                     F               0         Tower X translation velocity, node 9, m/s
         92     6.86235120520E-003                                                     F               0         Tower Y translation velocity, node 9, m/s
         93    -4.48518339545E-003                                                     F               0         Tower Z translation velocity, node 9, m/s
         94    -2.24954402074E-003                                                     F               0         Tower X translation velocity, node 10, m/s
         95     5.64243458211E-003                                                     F               0         Tower Y translation velocity, node 10, m/s
         96    -4.55566449091E-003                                                     F               0         Tower Z translation velocity, node 10, m/s
         97    -2.09644134156E-003                                                     F               0         Tower X translation velocity, node 11, m/s
         98     4.34079067782E-003                                                     F               0         Tower Y translation velocity, node 11, m/s
         99    -4.64678090066E-003                                                     F               0         Tower Z translation velocity, node 11, m/s
        100     2.15940341949E+001                                                     F               0         Hub X translation displacement, node 1, m
        101    -9.20229530334E+000                                                     F               0         Hub Y translation displacement, node 1, m
        102     5.95159875229E-003                                                     F               0         Hub Z translation displacement, node 1, m
        103     9.78930890560E-001,  -2.22321337787E-004,  -2.04191729426E-001         F               0         Hub X orientation angle, node 1, rad
        104    -1.20198488235E-001,   8.07756721973E-001,  -5.77132046223E-001         F               0         Hub Y orientation angle, node 1, rad
        105     1.65065556765E-001,   5.89515924454E-001,   7.90711283684E-001         F               0         Hub Z orientation angle, node 1, rad
        106     7.75105893612E-001                                                     F               0         Hub X rotation velocity, node 1, rad/s
        107    -1.60570009029E-004                                                     F               0         Hub Y rotation velocity, node 1, rad/s
        108    -1.61657765508E-001                                                     F               0         Hub Z rotation velocity, node 1, rad/s
        109     9.71618354321E-001,  -2.34929114580E-001,  -2.76792012155E-002         F               0         Blade root 1 X orientation angle, node 1, rad
        110     1.69443771243E-001,   7.72838473320E-001,  -6.11563205719E-001         F               0         Blade root 1 Y orientation angle, node 1, rad
        111     1.65065556765E-001,   5.89515924454E-001,   7.90711283684E-001         F               0         Blade root 1 Z orientation angle, node 1, rad
        112     8.77689361572E-001,  -3.12050357461E-002,  -4.78212982416E-001         F               0         Blade root 2 X orientation angle, node 1, rad
        113     4.78744685650E-001,   1.01990692317E-001,   8.72009992599E-001         F               0         Blade root 2 Y orientation angle, node 1, rad
        114     2.15621683747E-002,  -9.94295775890E-001,   1.04455389082E-001         F               0         Blade root 2 Z orientation angle, node 1, rad
        115     9.60766196251E-001,   2.65495955944E-001,  -8.02511796355E-002         F               0         Blade root 3 X orientation angle, node 1, rad
        116     2.05179080367E-001,  -8.75022947788E-001,  -4.38447713852E-001         F               0         Blade root 3 Y orientation angle, node 1, rad
        117    -1.86627715826E-001,   4.04779851437E-001,  -8.95166635513E-001         F               0         Blade root 3 Z orientation angle, node 1, rad
        118     2.19294090271E+001                                                     F               0         Blade 1 X translation displacement, node 1, m
        119    -5.93637704849E+000                                                     F               0         Blade 1 Y translation displacement, node 1, m
        120    -1.12316679955E+000                                                     F               0         Blade 1 Z translation displacement, node 1, m
        121     2.20102214813E+001                                                     F               0         Blade 1 X translation displacement, node 2, m
        122    -5.14942884445E+000                                                     F               0         Blade 1 Y translation displacement, node 2, m
        123    -1.39523243904E+000                                                     F               0         Blade 1 Z translation displacement, node 2, m
        124     2.31091156006E+001                                                     F               0         Blade 1 X translation displacement, node 3, m
        125     5.55170440674E+000                                                     F               0         Blade 1 Y translation displacement, node 3, m
        126    -5.09488296509E+000                                                     F               0         Blade 1 Z translation displacement, node 3, m
        127     2.33432407379E+001                                                     F               0         Blade 1 X translation displacement, node 4, m
        128     7.83164358139E+000                                                     F               0         Blade 1 Y translation displacement, node 4, m
        129    -5.88312339783E+000                                                     F               0         Blade 1 Z translation displacement, node 4, m
        130     2.35774116516E+001                                                     F               0         Blade 1 X translation displacement, node 5, m
        131     1.01120176315E+001                                                     F               0         Blade 1 Y translation displacement, node 5, m
        132    -6.67149829865E+000                                                     F               0         Blade 1 Z translation displacement, node 5, m
        133     2.38115386963E+001                                                     F               0         Blade 1 X translation displacement, node 6, m
        134     1.23919658661E+001                                                     F               0         Blade 1 Y translation displacement, node 6, m
        135    -7.45974206924E+000                                                     F               0         Blade 1 Z translation displacement, node 6, m
        136     2.40456657410E+001                                                     F               0         Blade 1 X translation displacement, node 7, m
        137     1.46719226837E+001                                                     F               0         Blade 1 Y translation displacement, node 7, m
        138    -8.24797439575E+000                                                     F               0         Blade 1 Z translation displacement, node 7, m
        139     2.42798347473E+001                                                     F               0         Blade 1 X translation displacement, node 8, m
        140     1.69522876740E+001                                                     F               0         Blade 1 Y translation displacement, node 8, m
        141    -9.03636169434E+000                                                     F               0         Blade 1 Z translation displacement, node 8, m
        142     2.45139617920E+001                                                     F               0         Blade 1 X translation displacement, node 9, m
        143     1.92322444916E+001                                                     F               0         Blade 1 Y translation displacement, node 9, m
        144    -9.82459354401E+000                                                     F               0         Blade 1 Z translation displacement, node 9, m
        145     2.47480888367E+001                                                     F               0         Blade 1 X translation displacement, node 10, m
        146     2.15121936798E+001                                                     F               0         Blade 1 Y translation displacement, node 10, m
        147    -1.06128368378E+001                                                     F               0         Blade 1 Z translation displacement, node 10, m
        148     2.49822158813E+001                                                     F               0         Blade 1 X translation displacement, node 11, m
        149     2.37921504974E+001                                                     F               0         Blade 1 Y translation displacement, node 11, m
        150    -1.14010686874E+001                                                     F               0         Blade 1 Z translation displacement, node 11, m
        151     2.52163848877E+001                                                     F               0         Blade 1 X translation displacement, node 12, m
        152     2.60725059509E+001                                                     F               0         Blade 1 Y translation displacement, node 12, m
        153    -1.21894521713E+001                                                     F               0         Blade 1 Z translation displacement, node 12, m
        154     2.54505138397E+001                                                     F               0         Blade 1 X translation displacement, node 13, m
        155     2.83524627686E+001                                                     F               0         Blade 1 Y translation displacement, node 13, m
        156    -1.29776840210E+001                                                     F               0         Blade 1 Z translation displacement, node 13, m
        157     2.56846408844E+001                                                     F               0         Blade 1 X translation displacement, node 14, m
        158     3.06324119568E+001                                                     F               0         Blade 1 Y translation displacement, node 14, m
        159    -1.37659273148E+001                                                     F               0         Blade 1 Z translation displacement, node 14, m
        160     2.59188098907E+001                                                     F               0         Blade 1 X translation displacement, node 15, m
        161     3.29127807617E+001                                                     F               0         Blade 1 Y translation displacement, node 15, m
        162    -1.45543060303E+001                                                     F               0         Blade 1 Z translation displacement, node 15, m
        163     2.61529369354E+001                                                     F               0         Blade 1 X translation displacement, node 16, m
        164     3.51927337646E+001                                                     F               0         Blade 1 Y translation displacement, node 16, m
        165    -1.53425483704E+001                                                     F               0         Blade 1 Z translation displacement, node 16, m
        166     2.63870658875E+001                                                     F               0         Blade 1 X translation displacement, node 17, m
        167     3.74726943970E+001                                                     F               0         Blade 1 Y translation displacement, node 17, m
        168    -1.61307773590E+001                                                     F               0         Blade 1 Z translation displacement, node 17, m
        169     2.66211929321E+001                                                     F               0         Blade 1 X translation displacement, node 18, m
        170     3.97526435852E+001                                                     F               0         Blade 1 Y translation displacement, node 18, m
        171    -1.69190196991E+001                                                     F               0         Blade 1 Z translation displacement, node 18, m
        172     2.68553600311E+001                                                     F               0         Blade 1 X translation displacement, node 19, m
        173     4.20329971313E+001                                                     F               0         Blade 1 Y translation displacement, node 19, m
        174    -1.77074012756E+001                                                     F               0         Blade 1 Z translation displacement, node 19, m
        175     2.70894870758E+001                                                     F               0         Blade 1 X translation displacement, node 20, m
        176     4.43129577637E+001                                                     F               0         Blade 1 Y translation displacement, node 20, m
        177    -1.84956302643E+001                                                     F               0         Blade 1 Z translation displacement, node 20, m
        178     2.73236160278E+001                                                     F               0         Blade 1 X translation displacement, node 21, m
        179     4.65929107666E+001                                                     F               0         Blade 1 Y translation displacement, node 21, m
        180    -1.92838726044E+001                                                     F               0         Blade 1 Z translation displacement, node 21, m
        181     2.75577850342E+001                                                     F               0         Blade 1 X translation displacement, node 22, m
        182     4.88732757568E+001                                                     F               0         Blade 1 Y translation displacement, node 22, m
        183    -2.00722560883E+001                                                     F               0         Blade 1 Z translation displacement, node 22, m