
Linearized model: Predictions were generated on 13-Feb-2024 at 12:12:09 using OpenFAST, compiled as a 64-bit application using single precision at commit v3.5.1
 linked with  NWTC Subroutine Library; ElastoDyn; InflowWind; AeroDyn; ServoDyn; HydroDyn; MAP++ (<1.20.10>, <Oct-20-2023>)

Description from the FAST input file: CCT-9 Campign 4 model. Input files to be run with OpenFAST 3.5.0. GitHub branch from Lu Wang (https://github.com/luwang00/openfast/tree/dev) compiled on March 7, 2023.

Simulation information:
   Simulation time:                   772.8750 s
   Rotor Speed:                         0.7914 rad/s
   Azimuth:                             1.9316 rad
   Wind Speed:                         24.0000 m/s
   Number of continuous states:         0
   Number of discrete states:           0
   Number of constraint states:         0
   Number of inputs:                  303
   Number of outputs:                   1
   Jacobians included in this file?    No

Order of inputs:
     Column   Operating Point                                                   Rotating Frame? Derivative Order Description
   ---------- ---------------                                                   --------------- ---------------- -----------
          1    -1.08005075455E+001                                                     F               0         X-component position of node 1 (hub), m
          2     0.00000000000E+000                                                     F               0         Y-component position of node 1 (hub), m
          3     1.49740173340E+002                                                     F               0         Z-component position of node 1 (hub), m
          4     1.03434419632E+001                                                     F               0         X-component position of node 2 (blade 1, node 1), m
          5    -1.42825183868E+001                                                     F               0         Y-component position of node 2 (blade 1, node 1), m
          6     1.47553726196E+002                                                     F               0         Z-component position of node 2 (blade 1, node 1), m
          7     1.02320861816E+001                                                     F               0         X-component position of node 3 (blade 1, node 2), m
          8    -1.55018472672E+001                                                     F               0         Y-component position of node 3 (blade 1, node 2), m
          9     1.47021926880E+002                                                     F               0         Z-component position of node 3 (blade 1, node 2), m
         10     8.71784877777E+000                                                     F               0         X-component position of node 4 (blade 1, node 3), m
         11    -3.20826034546E+001                                                     F               0         Y-component position of node 4 (blade 1, node 3), m
         12     1.39790359497E+002                                                     F               0         Z-component position of node 4 (blade 1, node 3), m
         13     8.39523315430E+000                                                     F               0         X-component position of node 5 (blade 1, node 4), m
         14    -3.56152305603E+001                                                     F               0         Y-component position of node 5 (blade 1, node 4), m
         15     1.38249633789E+002                                                     F               0         Z-component position of node 5 (blade 1, node 4), m
         16     8.07255268097E+000                                                     F               0         X-component position of node 6 (blade 1, node 5), m
         17    -3.91485328674E+001                                                     F               0         Y-component position of node 6 (blade 1, node 5), m
         18     1.36708618164E+002                                                     F               0         Z-component position of node 6 (blade 1, node 5), m
         19     7.74993515015E+000                                                     F               0         X-component position of node 7 (blade 1, node 6), m
         20    -4.26811752319E+001                                                     F               0         Y-component position of node 7 (blade 1, node 6), m
         21     1.35167877197E+002                                                     F               0         Z-component position of node 7 (blade 1, node 6), m
         22     7.42731523514E+000                                                     F               0         X-component position of node 8 (blade 1, node 7), m
         23    -4.62138290405E+001                                                     F               0         Y-component position of node 8 (blade 1, node 7), m
         24     1.33627136230E+002                                                     F               0         Z-component position of node 8 (blade 1, node 7), m
         25     7.10463762283E+000                                                     F               0         X-component position of node 9 (blade 1, node 8), m
         26    -4.97471122742E+001                                                     F               0         Y-component position of node 9 (blade 1, node 8), m
         27     1.32086120605E+002                                                     F               0         Z-component position of node 9 (blade 1, node 8), m
         28     6.78201723099E+000                                                     F               0         X-component position of node 10 (blade 1, node 9), m
         29    -5.32797698975E+001                                                     F               0         Y-component position of node 10 (blade 1, node 9), m
         30     1.30545394897E+002                                                     F               0         Z-component position of node 10 (blade 1, node 9), m
         31     6.45939922333E+000                                                     F               0         X-component position of node 11 (blade 1, node 10), m
         32    -5.68124122620E+001                                                     F               0         Y-component position of node 11 (blade 1, node 10), m
         33     1.29004653931E+002                                                     F               0         Z-component position of node 11 (blade 1, node 10), m
         34     6.13677835464E+000                                                     F               0         X-component position of node 12 (blade 1, node 11), m
         35    -6.03450660706E+001                                                     F               0         Y-component position of node 12 (blade 1, node 11), m
         36     1.27463912964E+002                                                     F               0         Z-component position of node 12 (blade 1, node 11), m
         37     5.81410455704E+000                                                     F               0         X-component position of node 13 (blade 1, node 12), m
         38    -6.38783378601E+001                                                     F               0         Y-component position of node 13 (blade 1, node 12), m
         39     1.25922904968E+002                                                     F               0         Z-component position of node 13 (blade 1, node 12), m
         40     5.49148368835E+000                                                     F               0         X-component position of node 14 (blade 1, node 13), m
         41    -6.74109954834E+001                                                     F               0         Y-component position of node 14 (blade 1, node 13), m
         42     1.24382164001E+002                                                     F               0         Z-component position of node 14 (blade 1, node 13), m
         43     5.16886568069E+000                                                     F               0         X-component position of node 15 (blade 1, node 14), m
         44    -7.09436340332E+001                                                     F               0         Y-component position of node 15 (blade 1, node 14), m
         45     1.22841430664E+002                                                     F               0         Z-component position of node 15 (blade 1, node 14), m
         46     4.84618663788E+000                                                     F               0         X-component position of node 16 (blade 1, node 15), m
         47    -7.44769287109E+001                                                     F               0         Y-component position of node 16 (blade 1, node 15), m
         48     1.21300422668E+002                                                     F               0         Z-component position of node 16 (blade 1, node 15), m
         49     4.52356863022E+000                                                     F               0         X-component position of node 17 (blade 1, node 16), m
         50    -7.80095748901E+001                                                     F               0         Y-component position of node 17 (blade 1, node 16), m
         51     1.19759681702E+002                                                     F               0         Z-component position of node 17 (blade 1, node 16), m
         52     4.20094776154E+000                                                     F               0         X-component position of node 18 (blade 1, node 17), m
         53    -8.15422363281E+001                                                     F               0         Y-component position of node 18 (blade 1, node 17), m
         54     1.18218940735E+002                                                     F               0         Z-component position of node 18 (blade 1, node 17), m
         55     3.87832927704E+000                                                     F               0         X-component position of node 19 (blade 1, node 18), m
         56    -8.50748825073E+001                                                     F               0         Y-component position of node 19 (blade 1, node 18), m
         57     1.16678207397E+002                                                     F               0         Z-component position of node 19 (blade 1, node 18), m
         58     3.55565381050E+000                                                     F               0         X-component position of node 20 (blade 1, node 19), m
         59    -8.86081542969E+001                                                     F               0         Y-component position of node 20 (blade 1, node 19), m
         60     1.15137199402E+002                                                     F               0         Z-component position of node 20 (blade 1, node 19), m
         61     3.23303270340E+000                                                     F               0         X-component position of node 21 (blade 1, node 20), m
         62    -9.21408081055E+001                                                     F               0         Y-component position of node 21 (blade 1, node 20), m
         63     1.13596458435E+002                                                     F               0         Z-component position of node 21 (blade 1, node 20), m
         64     2.91041469574E+000                                                     F               0         X-component position of node 22 (blade 1, node 21), m
         65    -9.56734619141E+001                                                     F               0         Y-component position of node 22 (blade 1, node 21), m
         66     1.12055717468E+002                                                     F               0         Z-component position of node 22 (blade 1, node 21), m
         67     2.58773708344E+000                                                     F               0         X-component position of node 23 (blade 1, node 22), m
         68    -9.92067489624E+001                                                     F               0         Y-component position of node 23 (blade 1, node 22), m
         69     1.10514709473E+002                                                     F               0         Z-component position of node 23 (blade 1, node 22), m
         70     2.26511597633E+000                                                     F               0         X-component position of node 24 (blade 1, node 23), m
         71    -1.02739402771E+002                                                     F               0         Y-component position of node 24 (blade 1, node 23), m
         72     1.08973976135E+002                                                     F               0         Z-component position of node 24 (blade 1, node 23), m
         73     1.94249773026E+000                                                     F               0         X-component position of node 25 (blade 1, node 24), m
         74    -1.06272048950E+002                                                     F               0         Y-component position of node 25 (blade 1, node 24), m
         75     1.07433235168E+002                                                     F               0         Z-component position of node 25 (blade 1, node 24), m
         76     1.61987948418E+000                                                     F               0         X-component position of node 26 (blade 1, node 25), m
         77    -1.09804695129E+002                                                     F               0         Y-component position of node 26 (blade 1, node 25), m
         78     1.05892501831E+002                                                     F               0         Z-component position of node 26 (blade 1, node 25), m
         79     1.29720199108E+000                                                     F               0         X-component position of node 27 (blade 1, node 26), m
         80    -1.13337982178E+002                                                     F               0         Y-component position of node 27 (blade 1, node 26), m
         81     1.04351478577E+002                                                     F               0         Z-component position of node 27 (blade 1, node 26), m
         82     9.74583685398E-001                                                     F               0         X-component position of node 28 (blade 1, node 27), m
         83    -1.16870620728E+002                                                     F               0         Y-component position of node 28 (blade 1, node 27), m
         84     1.02810752869E+002                                                     F               0         Z-component position of node 28 (blade 1, node 27), m
         85     7.01070189476E-001                                                     F               0         X-component position of node 29 (blade 1, node 28), m
         86    -1.19865554810E+002                                                     F               0         Y-component position of node 29 (blade 1, node 28), m
         87     1.01504539490E+002                                                     F               0         Z-component position of node 29 (blade 1, node 28), m
         88     1.01412496567E+001                                                     F               0         X-component position of node 30 (blade 2, node 1), m
         89    -4.73921203613E+000                                                     F               0         Y-component position of node 30 (blade 2, node 1), m
         90     1.46574325562E+002                                                     F               0         Z-component position of node 30 (blade 2, node 1), m
         91     9.98117542267E+000                                                     F               0         X-component position of node 31 (blade 2, node 2), m
         92    -3.65901637077E+000                                                     F               0         Y-component position of node 31 (blade 2, node 2), m
         93     1.45806533813E+002                                                     F               0         Z-component position of node 31 (blade 2, node 2), m
         94     7.80443334579E+000                                                     F               0         X-component position of node 32 (blade 2, node 3), m
         95     1.10299043655E+001                                                     F               0         Y-component position of node 32 (blade 2, node 3), m
         96     1.35365875244E+002                                                     F               0         Z-component position of node 32 (blade 2, node 3), m
         97     7.34066200256E+000                                                     F               0         X-component position of node 33 (blade 2, node 4), m
         98     1.41594858170E+001                                                     F               0         Y-component position of node 33 (blade 2, node 4), m
         99     1.33141418457E+002                                                     F               0         Z-component position of node 33 (blade 2, node 4), m
        100     6.87680816650E+000                                                     F               0         X-component position of node 34 (blade 2, node 5), m
        101     1.72896232605E+001                                                     F               0         Y-component position of node 34 (blade 2, node 5), m
        102     1.30916564941E+002                                                     F               0         Z-component position of node 34 (blade 2, node 5), m
        103     6.41303873062E+000                                                     F               0         X-component position of node 35 (blade 2, node 6), m
        104     2.04192047119E+001                                                     F               0         Y-component position of node 35 (blade 2, node 6), m
        105     1.28692108154E+002                                                     F               0         Z-component position of node 35 (blade 2, node 6), m
        106     5.94926738739E+000                                                     F               0         X-component position of node 36 (blade 2, node 7), m
        107     2.35487861633E+001                                                     F               0         Y-component position of node 36 (blade 2, node 7), m
        108     1.26467643738E+002                                                     F               0         Z-component position of node 36 (blade 2, node 7), m
        109     5.48541450500E+000                                                     F               0         X-component position of node 37 (blade 2, node 8), m
        110     2.66789245605E+001                                                     F               0         Y-component position of node 37 (blade 2, node 8), m
        111     1.24242782593E+002                                                     F               0         Z-component position of node 37 (blade 2, node 8), m
        112     5.02164316177E+000                                                     F               0         X-component position of node 38 (blade 2, node 9), m
        113     2.98085060120E+001                                                     F               0         Y-component position of node 38 (blade 2, node 9), m
        114     1.22018325806E+002                                                     F               0         Z-component position of node 38 (blade 2, node 9), m
        115     4.55787372589E+000                                                     F               0         X-component position of node 39 (blade 2, node 10), m
        116     3.29380798340E+001                                                     F               0         Y-component position of node 39 (blade 2, node 10), m
        117     1.19793869019E+002                                                     F               0         Z-component position of node 39 (blade 2, node 10), m
        118     4.09410285950E+000                                                     F               0         X-component position of node 40 (blade 2, node 11), m
        119     3.60676651001E+001                                                     F               0         Y-component position of node 40 (blade 2, node 11), m
        120     1.17569412231E+002                                                     F               0         Z-component position of node 40 (blade 2, node 11), m
        121     3.63024854660E+000                                                     F               0         X-component position of node 41 (blade 2, node 12), m
        122     3.91978034973E+001                                                     F               0         Y-component position of node 41 (blade 2, node 12), m
        123     1.15344543457E+002                                                     F               0         Z-component position of node 41 (blade 2, node 12), m
        124     3.16647744179E+000                                                     F               0         X-component position of node 42 (blade 2, node 13), m
        125     4.23273811340E+001                                                     F               0         Y-component position of node 42 (blade 2, node 13), m
        126     1.13120094299E+002                                                     F               0         Z-component position of node 42 (blade 2, node 13), m
        127     2.70270824432E+000                                                     F               0         X-component position of node 43 (blade 2, node 14), m
        128     4.54569587708E+001                                                     F               0         Y-component position of node 43 (blade 2, node 14), m
        129     1.10895629883E+002                                                     F               0         Z-component position of node 43 (blade 2, node 14), m
        130     2.23885273933E+000                                                     F               0         X-component position of node 44 (blade 2, node 15), m
        131     4.85871086121E+001                                                     F               0         Y-component position of node 44 (blade 2, node 15), m
        132     1.08670776367E+002                                                     F               0         Z-component position of node 44 (blade 2, node 15), m
        133     1.77508223057E+000                                                     F               0         X-component position of node 45 (blade 2, node 16), m
        134     5.17166862488E+001                                                     F               0         Y-component position of node 45 (blade 2, node 16), m
        135     1.06446319580E+002                                                     F               0         Z-component position of node 45 (blade 2, node 16), m
        136     1.31131148338E+000                                                     F               0         X-component position of node 46 (blade 2, node 17), m
        137     5.48462638855E+001                                                     F               0         Y-component position of node 46 (blade 2, node 17), m
        138     1.04221862793E+002                                                     F               0         Z-component position of node 46 (blade 2, node 17), m
        139     8.47541153431E-001                                                     F               0         X-component position of node 47 (blade 2, node 18), m
        140     5.79758415222E+001                                                     F               0         Y-component position of node 47 (blade 2, node 18), m
        141     1.01997406006E+002                                                     F               0         Z-component position of node 47 (blade 2, node 18), m
        142     3.83688151836E-001                                                     F               0         X-component position of node 48 (blade 2, node 19), m
        143     6.11059799194E+001                                                     F               0         Y-component position of node 48 (blade 2, node 19), m
        144     9.97725448608E+001                                                     F               0         Z-component position of node 48 (blade 2, node 19), m
        145    -8.00829082727E-002                                                     F               0         X-component position of node 49 (blade 2, node 20), m
        146     6.42355651855E+001                                                     F               0         Y-component position of node 49 (blade 2, node 20), m
        147     9.75480804443E+001                                                     F               0         Z-component position of node 49 (blade 2, node 20), m
        148    -5.43853402138E-001                                                     F               0         X-component position of node 50 (blade 2, node 21), m
        149     6.73651504517E+001                                                     F               0         Y-component position of node 50 (blade 2, node 21), m
        150     9.53236236572E+001                                                     F               0         Z-component position of node 50 (blade 2, node 21), m
        151    -1.00770831108E+000                                                     F               0         X-component position of node 51 (blade 2, node 22), m
        152     7.04952850342E+001                                                     F               0         Y-component position of node 51 (blade 2, node 22), m
        153     9.30987625122E+001                                                     F               0         Z-component position of node 51 (blade 2, node 22), m
        154    -1.47147798538E+000                                                     F               0         X-component position of node 52 (blade 2, node 23), m
        155     7.36248703003E+001                                                     F               0         Y-component position of node 52 (blade 2, node 23), m
        156     9.08743133545E+001                                                     F               0         Z-component position of node 52 (blade 2, node 23), m
        157    -1.93524932861E+000                                                     F               0         X-component position of node 53 (blade 2, node 24), m
        158     7.67544479370E+001                                                     F               0         Y-component position of node 53 (blade 2, node 24), m
        159     8.86498489380E+001                                                     F               0         Z-component position of node 53 (blade 2, node 24), m
        160    -2.39901900291E+000                                                     F               0         X-component position of node 54 (blade 2, node 25), m
        161     7.98840179443E+001                                                     F               0         Y-component position of node 54 (blade 2, node 25), m
        162     8.64253921509E+001                                                     F               0         Z-component position of node 54 (blade 2, node 25), m
        163    -2.86287641525E+000                                                     F               0         X-component position of node 55 (blade 2, node 26), m
        164     8.30141754150E+001                                                     F               0         Y-component position of node 55 (blade 2, node 26), m
        165     8.42005310059E+001                                                     F               0         Z-component position of node 55 (blade 2, node 26), m
        166    -3.32664632797E+000                                                     F               0         X-component position of node 56 (blade 2, node 27), m
        167     8.61437454224E+001                                                     F               0         Y-component position of node 56 (blade 2, node 27), m
        168     8.19760742188E+001                                                     F               0         Z-component position of node 56 (blade 2, node 27), m
        169    -3.71982169151E+000                                                     F               0         X-component position of node 57 (blade 2, node 28), m
        170     8.87969436646E+001                                                     F               0         Y-component position of node 57 (blade 2, node 28), m
        171     8.00902175903E+001                                                     F               0         Z-component position of node 57 (blade 2, node 28), m
        172     1.19320411682E+001                                                     F               0         X-component position of node 58 (blade 3, node 1), m