
Linearized model: Predictions were generated on 06-Feb-2024 at 10:15:48 using OpenFAST, compiled as a 64-bit application using single precision at commit v3.5.1
 linked with  NWTC Subroutine Library; ElastoDyn; InflowWind; AeroDyn; ServoDyn; HydroDyn; MAP++ (<1.20.10>, <Oct-20-2023>)

Description from the FAST input file: CCT-9 Campign 4 model. Input files to be run with OpenFAST 3.5.0. GitHub branch from Lu Wang (https://github.com/luwang00/openfast/tree/dev) compiled on March 7, 2023.

Simulation information:
   Simulation time:                  1001.2500 s
   Rotor Speed:                         1.0391 rad/s
   Azimuth:                             2.3486 rad
   Wind Speed:                         12.0000 m/s
   Number of continuous states:         0
   Number of discrete states:           0
   Number of constraint states:         0
   Number of inputs:                 1746
   Number of outputs:                   4
   Jacobians included in this file?    No

Order of inputs:
     Column   Operating Point                     Rotating Frame? Derivative Order Description
   ---------- ---------------                     --------------- ---------------- -----------
          1    1.515E+01                                 F               0         Tower X translation displacement, node 1, m
          2   -1.040E+00                                 F               0         Tower Y translation displacement, node 1, m
          3   -5.007E-01                                 F               0         Tower Z translation displacement, node 1, m
          4    1.708E+01                                 F               0         Tower X translation displacement, node 2, m
          5   -1.596E+00                                 F               0         Tower Y translation displacement, node 2, m
          6   -6.655E-01                                 F               0         Tower Z translation displacement, node 2, m
          7    1.905E+01                                 F               0         Tower X translation displacement, node 3, m
          8   -2.157E+00                                 F               0         Tower Y translation displacement, node 3, m
          9   -8.360E-01                                 F               0         Tower Z translation displacement, node 3, m
         10    2.104E+01                                 F               0         Tower X translation displacement, node 4, m
         11   -2.722E+00                                 F               0         Tower Y translation displacement, node 4, m
         12   -1.011E+00                                 F               0         Tower Z translation displacement, node 4, m
         13    2.306E+01                                 F               0         Tower X translation displacement, node 5, m
         14   -3.290E+00                                 F               0         Tower Y translation displacement, node 5, m
         15   -1.190E+00                                 F               0         Tower Z translation displacement, node 5, m
         16    2.509E+01                                 F               0         Tower X translation displacement, node 6, m
         17   -3.862E+00                                 F               0         Tower Y translation displacement, node 6, m
         18   -1.372E+00                                 F               0         Tower Z translation displacement, node 6, m
         19    2.714E+01                                 F               0         Tower X translation displacement, node 7, m
         20   -4.435E+00                                 F               0         Tower Y translation displacement, node 7, m
         21   -1.556E+00                                 F               0         Tower Z translation displacement, node 7, m
         22    2.920E+01                                 F               0         Tower X translation displacement, node 8, m
         23   -5.011E+00                                 F               0         Tower Y translation displacement, node 8, m
         24   -1.742E+00                                 F               0         Tower Z translation displacement, node 8, m
         25    3.126E+01                                 F               0         Tower X translation displacement, node 9, m
         26   -5.589E+00                                 F               0         Tower Y translation displacement, node 9, m
         27   -1.930E+00                                 F               0         Tower Z translation displacement, node 9, m
         28    3.334E+01                                 F               0         Tower X translation displacement, node 10, m
         29   -6.167E+00                                 F               0         Tower Y translation displacement, node 10, m
         30   -2.119E+00                                 F               0         Tower Z translation displacement, node 10, m
         31    3.541E+01                                 F               0         Tower X translation displacement, node 11, m
         32   -6.747E+00                                 F               0         Tower Y translation displacement, node 11, m
         33   -2.308E+00                                 F               0         Tower Z translation displacement, node 11, m
         34    9.878E-01,  1.416E-02, -1.548E-01         F               0         Tower X orientation angle, node 1, rad
         35   -7.033E-03,  9.989E-01,  4.645E-02         F               0         Tower Y orientation angle, node 1, rad
         36    1.553E-01, -4.480E-02,  9.868E-01         F               0         Tower Z orientation angle, node 1, rad
         37    9.874E-01,  1.427E-02, -1.574E-01         F               0         Tower X orientation angle, node 2, rad
         38   -6.965E-03,  9.989E-01,  4.688E-02         F               0         Tower Y orientation angle, node 2, rad
         39    1.579E-01, -4.520E-02,  9.864E-01         F               0         Tower Z orientation angle, node 2, rad
         40    9.871E-01,  1.438E-02, -1.597E-01         F               0         Tower X orientation angle, node 3, rad
         41   -6.903E-03,  9.989E-01,  4.727E-02         F               0         Tower Y orientation angle, node 3, rad
         42    1.602E-01, -4.555E-02,  9.860E-01         F               0         Tower Z orientation angle, node 3, rad
         43    9.867E-01,  1.447E-02, -1.617E-01         F               0         Tower X orientation angle, node 4, rad
         44   -6.848E-03,  9.988E-01,  4.760E-02         F               0         Tower Y orientation angle, node 4, rad
         45    1.622E-01, -4.586E-02,  9.857E-01         F               0         Tower Z orientation angle, node 4, rad
         46    9.865E-01,  1.455E-02, -1.634E-01         F               0         Tower X orientation angle, node 5, rad
         47   -6.800E-03,  9.988E-01,  4.789E-02         F               0         Tower Y orientation angle, node 5, rad
         48    1.639E-01, -4.613E-02,  9.854E-01         F               0         Tower Z orientation angle, node 5, rad
         49    9.862E-01,  1.461E-02, -1.647E-01         F               0         Tower X orientation angle, node 6, rad
         50   -6.760E-03,  9.988E-01,  4.813E-02         F               0         Tower Y orientation angle, node 6, rad
         51    1.652E-01, -4.636E-02,  9.852E-01         F               0         Tower Z orientation angle, node 6, rad
         52    9.861E-01,  1.466E-02, -1.657E-01         F               0         Tower X orientation angle, node 7, rad
         53   -6.728E-03,  9.988E-01,  4.833E-02         F               0         Tower Y orientation angle, node 7, rad
         54    1.662E-01, -4.654E-02,  9.850E-01         F               0         Tower Z orientation angle, node 7, rad
         55    9.859E-01,  1.470E-02, -1.665E-01         F               0         Tower X orientation angle, node 8, rad
         56   -6.702E-03,  9.988E-01,  4.848E-02         F               0         Tower Y orientation angle, node 8, rad
         57    1.670E-01, -4.668E-02,  9.849E-01         F               0         Tower Z orientation angle, node 8, rad
         58    9.858E-01,  1.472E-02, -1.670E-01         F               0         Tower X orientation angle, node 9, rad
         59   -6.683E-03,  9.988E-01,  4.859E-02         F               0         Tower Y orientation angle, node 9, rad
         60    1.675E-01, -4.678E-02,  9.848E-01         F               0         Tower Z orientation angle, node 9, rad
         61    9.858E-01,  1.474E-02, -1.674E-01         F               0         Tower X orientation angle, node 10, rad
         62   -6.671E-03,  9.988E-01,  4.866E-02         F               0         Tower Y orientation angle, node 10, rad
         63    1.679E-01, -4.685E-02,  9.847E-01         F               0         Tower Z orientation angle, node 10, rad
         64    9.858E-01,  1.475E-02, -1.675E-01         F               0         Tower X orientation angle, node 11, rad
         65   -6.664E-03,  9.988E-01,  4.870E-02         F               0         Tower Y orientation angle, node 11, rad
         66    1.681E-01, -4.689E-02,  9.847E-01         F               0         Tower Z orientation angle, node 11, rad
         67   -2.277E-03                                 F               0         Tower X translation velocity, node 1, m/s
         68   -3.634E-02                                 F               0         Tower Y translation velocity, node 1, m/s
         69   -3.810E-03                                 F               0         Tower Z translation velocity, node 1, m/s
         70   -2.915E-03                                 F               0         Tower X translation velocity, node 2, m/s
         71   -6.132E-02                                 F               0         Tower Y translation velocity, node 2, m/s
         72   -4.848E-03                                 F               0         Tower Z translation velocity, node 2, m/s
         73   -3.518E-03                                 F               0         Tower X translation velocity, node 3, m/s
         74   -8.672E-02                                 F               0         Tower Y translation velocity, node 3, m/s
         75   -5.919E-03                                 F               0         Tower Z translation velocity, node 3, m/s
         76   -4.101E-03                                 F               0         Tower X translation velocity, node 4, m/s
         77   -1.124E-01                                 F               0         Tower Y translation velocity, node 4, m/s
         78   -7.017E-03                                 F               0         Tower Z translation velocity, node 4, m/s
         79   -4.674E-03                                 F               0         Tower X translation velocity, node 5, m/s
         80   -1.384E-01                                 F               0         Tower Y translation velocity, node 5, m/s
         81   -8.136E-03                                 F               0         Tower Z translation velocity, node 5, m/s
         82   -5.247E-03                                 F               0         Tower X translation velocity, node 6, m/s
         83   -1.647E-01                                 F               0         Tower Y translation velocity, node 6, m/s
         84   -9.272E-03                                 F               0         Tower Z translation velocity, node 6, m/s
         85   -5.825E-03                                 F               0         Tower X translation velocity, node 7, m/s
         86   -1.911E-01                                 F               0         Tower Y translation velocity, node 7, m/s
         87   -1.042E-02                                 F               0         Tower Z translation velocity, node 7, m/s
         88   -6.412E-03                                 F               0         Tower X translation velocity, node 8, m/s
         89   -2.177E-01                                 F               0         Tower Y translation velocity, node 8, m/s
         90   -1.158E-02                                 F               0         Tower Z translation velocity, node 8, m/s
         91   -7.012E-03                                 F               0         Tower X translation velocity, node 9, m/s
         92   -2.444E-01                                 F               0         Tower Y translation velocity, node 9, m/s
         93   -1.275E-02                                 F               0         Tower Z translation velocity, node 9, m/s
         94   -7.623E-03                                 F               0         Tower X translation velocity, node 10, m/s
         95   -2.712E-01                                 F               0         Tower Y translation velocity, node 10, m/s
         96   -1.392E-02                                 F               0         Tower Z translation velocity, node 10, m/s
         97   -8.243E-03                                 F               0         Tower X translation velocity, node 11, m/s
         98   -2.980E-01                                 F               0         Tower Y translation velocity, node 11, m/s
         99   -1.509E-02                                 F               0         Tower Z translation velocity, node 11, m/s
        100    3.688E+01                                 F               0         Hub X translation displacement, node 1, m
        101   -7.274E+00                                 F               0         Hub Y translation displacement, node 1, m
        102   -6.193E-01                                 F               0         Hub Z translation displacement, node 1, m
        103    9.628E-01,  1.957E-02, -2.696E-01         F               0         Hub X orientation angle, node 1, rad
        104    1.972E-01, -7.330E-01,  6.510E-01         F               0         Hub Y orientation angle, node 1, rad
        105   -1.848E-01, -6.799E-01, -7.096E-01         F               0         Hub Z orientation angle, node 1, rad
        106    1.003E+00                                 F               0         Hub X rotation velocity, node 1, rad/s
        107    2.031E-02                                 F               0         Hub Y rotation velocity, node 1, rad/s
        108   -2.806E-01                                 F               0         Hub Z rotation velocity, node 1, rad/s
        109    9.565E-01,  4.130E-02, -2.888E-01         F               0         Blade root 1 X orientation angle, node 1, rad
        110    2.256E-01, -7.321E-01,  6.427E-01         F               0         Blade root 1 Y orientation angle, node 1, rad
        111   -1.848E-01, -6.799E-01, -7.096E-01         F               0         Blade root 1 Z orientation angle, node 1, rad
        112    9.700E-01,  2.616E-02, -2.416E-01         F               0         Blade root 2 X orientation angle, node 1, rad
        113   -2.300E-01, -2.217E-01, -9.476E-01         F               0         Blade root 2 Y orientation angle, node 1, rad
        114   -7.833E-02,  9.748E-01, -2.090E-01         F               0         Blade root 2 Z orientation angle, node 1, rad
        115    9.605E-01, -8.782E-03, -2.780E-01         F               0         Blade root 3 X orientation angle, node 1, rad
        116    9.004E-02,  9.555E-01,  2.809E-01         F               0         Blade root 3 Y orientation angle, node 1, rad
        117    2.632E-01, -2.948E-01,  9.186E-01         F               0         Blade root 3 Z orientation angle, node 1, rad
        118    3.528E+01                                 F               0         Blade 1 X translation displacement, node 1, m
        119   -1.104E+01                                 F               0         Blade 1 Y translation displacement, node 1, m
        120   -1.006E+01                                 F               0         Blade 1 Z translation displacement, node 1, m
        121    3.489E+01                                 F               0         Blade 1 X translation displacement, node 2, m
        122   -1.195E+01                                 F               0         Blade 1 Y translation displacement, node 2, m
        123   -1.233E+01                                 F               0         Blade 1 Z translation displacement, node 2, m
        124    2.964E+01                                 F               0         Blade 1 X translation displacement, node 3, m
        125   -2.429E+01                                 F               0         Blade 1 Y translation displacement, node 3, m
        126   -4.327E+01                                 F               0         Blade 1 Z translation displacement, node 3, m
        127    2.852E+01                                 F               0         Blade 1 X translation displacement, node 4, m
        128   -2.692E+01                                 F               0         Blade 1 Y translation displacement, node 4, m
        129   -4.986E+01                                 F               0         Blade 1 Z translation displacement, node 4, m
        130    2.740E+01                                 F               0         Blade 1 X translation displacement, node 5, m
        131   -2.955E+01                                 F               0         Blade 1 Y translation displacement, node 5, m
        132   -5.645E+01                                 F               0         Blade 1 Z translation displacement, node 5, m
        133    2.628E+01                                 F               0         Blade 1 X translation displacement, node 6, m
        134   -3.218E+01                                 F               0         Blade 1 Y translation displacement, node 6, m
        135   -6.304E+01                                 F               0         Blade 1 Z translation displacement, node 6, m
        136    2.516E+01                                 F               0         Blade 1 X translation displacement, node 7, m
        137   -3.481E+01                                 F               0         Blade 1 Y translation displacement, node 7, m
        138   -6.963E+01                                 F               0         Blade 1 Z translation displacement, node 7, m
        139    2.405E+01                                 F               0         Blade 1 X translation displacement, node 8, m
        140   -3.744E+01                                 F               0         Blade 1 Y translation displacement, node 8, m
        141   -7.622E+01                                 F               0         Blade 1 Z translation displacement, node 8, m
        142    2.293E+01                                 F               0         Blade 1 X translation displacement, node 9, m
        143   -4.007E+01                                 F               0         Blade 1 Y translation displacement, node 9, m
        144   -8.281E+01                                 F               0         Blade 1 Z translation displacement, node 9, m
        145    2.181E+01                                 F               0         Blade 1 X translation displacement, node 10, m
        146   -4.270E+01                                 F               0         Blade 1 Y translation displacement, node 10, m
        147   -8.941E+01                                 F               0         Blade 1 Z translation displacement, node 10, m
        148    2.069E+01                                 F               0         Blade 1 X translation displacement, node 11, m
        149   -4.533E+01                                 F               0         Blade 1 Y translation displacement, node 11, m
        150   -9.600E+01                                 F               0         Blade 1 Z translation displacement, node 11, m
        151    1.957E+01                                 F               0         Blade 1 X translation displacement, node 12, m
        152   -4.796E+01                                 F               0         Blade 1 Y translation displacement, node 12, m
        153   -1.026E+02                                 F               0         Blade 1 Z translation displacement, node 12, m
        154    1.845E+01                                 F               0         Blade 1 X translation displacement, node 13, m
        155   -5.059E+01                                 F               0         Blade 1 Y translation displacement, node 13, m
        156   -1.092E+02                                 F               0         Blade 1 Z translation displacement, node 13, m
        157    1.733E+01                                 F               0         Blade 1 X translation displacement, node 14, m
        158   -5.322E+01                                 F               0         Blade 1 Y translation displacement, node 14, m
        159   -1.158E+02                                 F               0         Blade 1 Z translation displacement, node 14, m
        160    1.621E+01                                 F               0         Blade 1 X translation displacement, node 15, m
        161   -5.585E+01                                 F               0         Blade 1 Y translation displacement, node 15, m
        162   -1.224E+02                                 F               0         Blade 1 Z translation displacement, node 15, m
        163    1.509E+01                                 F               0         Blade 1 X translation displacement, node 16, m
        164   -5.848E+01                                 F               0         Blade 1 Y translation displacement, node 16, m
        165   -1.290E+02                                 F               0         Blade 1 Z translation displacement, node 16, m
        166    1.397E+01                                 F               0         Blade 1 X translation displacement, node 17, m
        167   -6.111E+01                                 F               0         Blade 1 Y translation displacement, node 17, m
        168   -1.355E+02                                 F               0         Blade 1 Z translation displacement, node 17, m
        169    1.285E+01                                 F               0         Blade 1 X translation displacement, node 18, m
        170   -6.374E+01                                 F               0         Blade 1 Y translation displacement, node 18, m
        171   -1.421E+02                                 F               0         Blade 1 Z translation displacement, node 18, m
        172    1.173E+01                                 F               0         Blade 1 X translation displacement, node 19, m
        173   -6.637E+01                                 F               0         Blade 1 Y translation displacement, node 19, m
        174   -1.487E+02                                 F               0         Blade 1 Z translation displacement, node 19, m
        175    1.061E+01                                 F               0         Blade 1 X translation displacement, node 20, m
        176   -6.900E+01                                 F               0         Blade 1 Y translation displacement, node 20, m
        177   -1.553E+02                                 F               0         Blade 1 Z translation displacement, node 20, m
        178    9.496E+00                                 F               0         Blade 1 X translation displacement, node 21, m
        179   -7.163E+01                                 F               0         Blade 1 Y translation displacement, node 21, m
        180   -1.619E+02                                 F               0         Blade 1 Z translation displacement, node 21, m
        181    8.376E+00                                 F               0         Blade 1 X translation displacement, node 22, m
        182   -7.426E+01                                 F               0         Blade 1 Y translation displacement, node 22, m
        183   -1.685E+02                                 F               0         Blade 1 Z translation displacement, node 22, m
        184    7.257E+00                                 F               0         Blade 1 X translation displacement, node 23, m
        185   -7.689E+01                                 F               0         Blade 1 Y translation displacement, node 23, m
        186   -1.751E+02                                 F               0         Blade 1 Z translation displacement, node 23, m
        187    6.138E+00                                 F               0         Blade 1 X translation displacement, node 24, m
        188   -7.952E+01                                 F               0         Blade 1 Y translation displacement, node 24, m
        189   -1.817E+02                                 F               0         Blade 1 Z translation displacement, node 24, m
        190    5.019E+00                                 F               0         Blade 1 X translation displacement, node 25, m
        191   -8.215E+01                                 F               0         Blade 1 Y translation displacement, node 25, m
        192   -1.883E+02                                 F               0         Blade 1 Z translation displacement, node 25, m
        193    3.900E+00                                 F               0         Blade 1 X translation displacement, node 26, m
        194   -8.478E+01                                 F               0         Blade 1 Y translation displacement, node 26, m
        195   -1.949E+02                                 F               0         Blade 1 Z translation displacement, node 26, m
        196    2.780E+00                                 F               0         Blade 1 X translation displacement, node 27, m
        197   -8.741E+01                                 F               0         Blade 1 Y translation displacement, node 27, m
        198   -2.015E+02                                 F               0         Blade 1 Z translation displacement, node 27, m
        199    1.832E+00                                 F               0         Blade 1 X translation displacement, node 28, m
        200   -8.964E+01                                 F               0         Blade 1 Y translation displacement, node 28, m
        201   -2.070E+02                                 F               0         Blade 1 Z translation displacement, node 28, m
        202    7.484E-01,  3.706E-01, -5.501E-01         F               0         Blade 1 X orientation angle, node 1, rad
        203    6.370E-01, -6.327E-01,  4.403E-01         F               0         Blade 1 Y orientation angle, node 1, rad
        204   -1.848E-01, -6.799E-01, -7.096E-01         F               0         Blade 1 Z orientation angle, node 1, rad
        205    7.484E-01,  3.706E-01, -5.501E-01         F               0         Blade 1 X orientation angle, node 2, rad
        206    6.370E-01, -6.327E-01,  4.403E-01         F               0         Blade 1 Y orientation angle, node 2, rad
        207   -1.848E-01, -6.799E-01, -7.096E-01         F               0         Blade 1 Z orientation angle, node 2, rad
        208    8.780E-01,  2.101E-01, -4.300E-01         F               0         Blade 1 X orientation angle, node 3, rad
        209    4.415E-01, -7.025E-01,  5.582E-01         F               0         Blade 1 Y orientation angle, node 3, rad
        210   -1.848E-01, -6.799E-01, -7.096E-01         F               0         Blade 1 Z orientation angle, node 3, rad
        211    8.959E-01,  1.802E-01, -4.061E-01         F               0         Blade 1 X orientation angle, node 4, rad
        212    4.040E-01, -7.108E-01,  5.758E-01         F               0         Blade 1 Y orientation angle, node 4, rad
        213   -1.848E-01, -6.799E-01, -7.096E-01         F               0         Blade 1 Z orientation angle, node 4, rad
        214    9.088E-01,  1.566E-01, -3.868E-01         F               0         Blade 1 X orientation angle, node 5, rad
        215    3.741E-01, -7.164E-01,  5.890E-01         F               0         Blade 1 Y orientation angle, node 5, rad
        216   -1.848E-01, -6.799E-01, -7.096E-01         F               0         Blade 1 Z orientation angle, node 5, rad
        217    9.184E-01,  1.375E-01, -3.710E-01         F               0         Blade 1 X orientation angle, node 6, rad
        218    3.498E-01, -7.203E-01,  5.990E-01         F               0         Blade 1 Y orientation angle, node 6, rad
        219   -1.848E-01, -6.799E-01, -7.096E-01         F               0         Blade 1 Z orientation angle, node 6, rad
        220    9.258E-01,  1.218E-01, -3.579E-01         F               0         Blade 1 X orientation angle, node 7, rad
        221    3.297E-01, -7.231E-01,  6.070E-01         F               0         Blade 1 Y orientation angle, node 7, rad
        222   -1.848E-01, -6.799E-01, -7.096E-01         F               0         Blade 1 Z orientation angle, node 7, rad
        223    9.316E-01,  1.086E-01, -3.468E-01         F               0         Blade 1 X orientation angle, node 8, rad
        224    3.129E-01, -7.252E-01,  6.134E-01         F               0         Blade 1 Y orientation angle, node 8, rad
        225   -1.848E-01, -6.799E-01, -7.096E-01         F               0         Blade 1 Z orientation angle, node 8, rad
        226    9.363E-01,  9.748E-02, -3.373E-01         F               0         Blade 1 X orientation angle, node 9, rad
        227    2.985E-01, -7.268E-01,  6.186E-01         F               0         Blade 1 Y orientation angle, node 9, rad