
Linearized model: Predictions were generated on 12-Feb-2024 at 15:30:16 using OpenFAST, compiled as a 64-bit application using single precision at commit v3.5.1
 linked with  NWTC Subroutine Library; ElastoDyn; InflowWind; AeroDyn; ServoDyn; HydroDyn; MAP++ (<1.20.10>, <Oct-20-2023>)

Description from the FAST input file: CCT-9 Campign 4 model. Input files to be run with OpenFAST 3.5.0. GitHub branch from Lu Wang (https://github.com/luwang00/openfast/tree/dev) compiled on March 7, 2023.

Simulation information:
   Simulation time:                  1002.0000 s
   Rotor Speed:                         1.0394 rad/s
   Azimuth:                             3.1281 rad
   Wind Speed:                         12.0000 m/s
   Number of continuous states:         0
   Number of discrete states:           0
   Number of constraint states:         0
   Number of inputs:                 1746
   Number of outputs:                   4
   Jacobians included in this file?    No

Order of inputs:
     Column   Operating Point                     Rotating Frame? Derivative Order Description
   ---------- ---------------                     --------------- ---------------- -----------
          1    1.515E+01                                 F               0         Tower X translation displacement, node 1, m
          2   -1.067E+00                                 F               0         Tower Y translation displacement, node 1, m
          3   -5.032E-01                                 F               0         Tower Z translation displacement, node 1, m
          4    1.708E+01                                 F               0         Tower X translation displacement, node 2, m
          5   -1.640E+00                                 F               0         Tower Y translation displacement, node 2, m
          6   -6.687E-01                                 F               0         Tower Z translation displacement, node 2, m
          7    1.904E+01                                 F               0         Tower X translation displacement, node 3, m
          8   -2.219E+00                                 F               0         Tower Y translation displacement, node 3, m
          9   -8.399E-01                                 F               0         Tower Z translation displacement, node 3, m
         10    2.104E+01                                 F               0         Tower X translation displacement, node 4, m
         11   -2.803E+00                                 F               0         Tower Y translation displacement, node 4, m
         12   -1.016E+00                                 F               0         Tower Z translation displacement, node 4, m
         13    2.305E+01                                 F               0         Tower X translation displacement, node 5, m
         14   -3.390E+00                                 F               0         Tower Y translation displacement, node 5, m
         15   -1.195E+00                                 F               0         Tower Z translation displacement, node 5, m
         16    2.509E+01                                 F               0         Tower X translation displacement, node 6, m
         17   -3.980E+00                                 F               0         Tower Y translation displacement, node 6, m
         18   -1.378E+00                                 F               0         Tower Z translation displacement, node 6, m
         19    2.713E+01                                 F               0         Tower X translation displacement, node 7, m
         20   -4.573E+00                                 F               0         Tower Y translation displacement, node 7, m
         21   -1.563E+00                                 F               0         Tower Z translation displacement, node 7, m
         22    2.919E+01                                 F               0         Tower X translation displacement, node 8, m
         23   -5.168E+00                                 F               0         Tower Y translation displacement, node 8, m
         24   -1.750E+00                                 F               0         Tower Z translation displacement, node 8, m
         25    3.126E+01                                 F               0         Tower X translation displacement, node 9, m
         26   -5.765E+00                                 F               0         Tower Y translation displacement, node 9, m
         27   -1.939E+00                                 F               0         Tower Z translation displacement, node 9, m
         28    3.333E+01                                 F               0         Tower X translation displacement, node 10, m
         29   -6.363E+00                                 F               0         Tower Y translation displacement, node 10, m
         30   -2.129E+00                                 F               0         Tower Z translation displacement, node 10, m
         31    3.540E+01                                 F               0         Tower X translation displacement, node 11, m
         32   -6.961E+00                                 F               0         Tower Y translation displacement, node 11, m
         33   -2.319E+00                                 F               0         Tower Z translation displacement, node 11, m
         34    9.878E-01,  1.391E-02, -1.548E-01         F               0         Tower X orientation angle, node 1, rad
         35   -6.563E-03,  9.988E-01,  4.784E-02         F               0         Tower Y orientation angle, node 1, rad
         36    1.553E-01, -4.624E-02,  9.868E-01         F               0         Tower Z orientation angle, node 1, rad
         37    9.874E-01,  1.403E-02, -1.574E-01         F               0         Tower X orientation angle, node 2, rad
         38   -6.492E-03,  9.988E-01,  4.829E-02         F               0         Tower Y orientation angle, node 2, rad
         39    1.579E-01, -4.666E-02,  9.864E-01         F               0         Tower Z orientation angle, node 2, rad
         40    9.871E-01,  1.414E-02, -1.597E-01         F               0         Tower X orientation angle, node 3, rad
         41   -6.426E-03,  9.988E-01,  4.870E-02         F               0         Tower Y orientation angle, node 3, rad
         42    1.602E-01, -4.704E-02,  9.860E-01         F               0         Tower Z orientation angle, node 3, rad
         43    9.867E-01,  1.423E-02, -1.617E-01         F               0         Tower X orientation angle, node 4, rad
         44   -6.369E-03,  9.988E-01,  4.905E-02         F               0         Tower Y orientation angle, node 4, rad
         45    1.622E-01, -4.737E-02,  9.856E-01         F               0         Tower Z orientation angle, node 4, rad
         46    9.865E-01,  1.431E-02, -1.633E-01         F               0         Tower X orientation angle, node 5, rad
         47   -6.319E-03,  9.988E-01,  4.935E-02         F               0         Tower Y orientation angle, node 5, rad
         48    1.638E-01, -4.765E-02,  9.853E-01         F               0         Tower Z orientation angle, node 5, rad
         49    9.862E-01,  1.438E-02, -1.646E-01         F               0         Tower X orientation angle, node 6, rad
         50   -6.276E-03,  9.987E-01,  4.961E-02         F               0         Tower Y orientation angle, node 6, rad
         51    1.652E-01, -4.789E-02,  9.851E-01         F               0         Tower Z orientation angle, node 6, rad
         52    9.861E-01,  1.443E-02, -1.657E-01         F               0         Tower X orientation angle, node 7, rad
         53   -6.242E-03,  9.987E-01,  4.981E-02         F               0         Tower Y orientation angle, node 7, rad
         54    1.662E-01, -4.808E-02,  9.849E-01         F               0         Tower Z orientation angle, node 7, rad
         55    9.859E-01,  1.446E-02, -1.664E-01         F               0         Tower X orientation angle, node 8, rad
         56   -6.215E-03,  9.987E-01,  4.997E-02         F               0         Tower Y orientation angle, node 8, rad
         57    1.670E-01, -4.823E-02,  9.848E-01         F               0         Tower Z orientation angle, node 8, rad
         58    9.859E-01,  1.449E-02, -1.670E-01         F               0         Tower X orientation angle, node 9, rad
         59   -6.196E-03,  9.987E-01,  5.008E-02         F               0         Tower Y orientation angle, node 9, rad
         60    1.675E-01, -4.834E-02,  9.847E-01         F               0         Tower Z orientation angle, node 9, rad
         61    9.858E-01,  1.451E-02, -1.673E-01         F               0         Tower X orientation angle, node 10, rad
         62   -6.183E-03,  9.987E-01,  5.016E-02         F               0         Tower Y orientation angle, node 10, rad
         63    1.678E-01, -4.841E-02,  9.846E-01         F               0         Tower Z orientation angle, node 10, rad
         64    9.858E-01,  1.452E-02, -1.675E-01         F               0         Tower X orientation angle, node 11, rad
         65   -6.176E-03,  9.987E-01,  5.020E-02         F               0         Tower Y orientation angle, node 11, rad
         66    1.680E-01, -4.845E-02,  9.846E-01         F               0         Tower Z orientation angle, node 11, rad
         67   -1.998E-03                                 F               0         Tower X translation velocity, node 1, m/s
         68   -3.537E-02                                 F               0         Tower Y translation velocity, node 1, m/s
         69   -2.668E-03                                 F               0         Tower Z translation velocity, node 1, m/s
         70   -2.686E-03                                 F               0         Tower X translation velocity, node 2, m/s
         71   -5.925E-02                                 F               0         Tower Y translation velocity, node 2, m/s
         72   -3.683E-03                                 F               0         Tower Z translation velocity, node 2, m/s
         73   -3.466E-03                                 F               0         Tower X translation velocity, node 3, m/s
         74   -8.349E-02                                 F               0         Tower Y translation velocity, node 3, m/s
         75   -4.709E-03                                 F               0         Tower Z translation velocity, node 3, m/s
         76   -4.315E-03                                 F               0         Tower X translation velocity, node 4, m/s
         77   -1.080E-01                                 F               0         Tower Y translation velocity, node 4, m/s
         78   -5.744E-03                                 F               0         Tower Z translation velocity, node 4, m/s
         79   -5.222E-03                                 F               0         Tower X translation velocity, node 5, m/s
         80   -1.328E-01                                 F               0         Tower Y translation velocity, node 5, m/s
         81   -6.788E-03                                 F               0         Tower Z translation velocity, node 5, m/s
         82   -6.175E-03                                 F               0         Tower X translation velocity, node 6, m/s
         83   -1.577E-01                                 F               0         Tower Y translation velocity, node 6, m/s
         84   -7.839E-03                                 F               0         Tower Z translation velocity, node 6, m/s
         85   -7.162E-03                                 F               0         Tower X translation velocity, node 7, m/s
         86   -1.828E-01                                 F               0         Tower Y translation velocity, node 7, m/s
         87   -8.896E-03                                 F               0         Tower Z translation velocity, node 7, m/s
         88   -8.177E-03                                 F               0         Tower X translation velocity, node 8, m/s
         89   -2.081E-01                                 F               0         Tower Y translation velocity, node 8, m/s
         90   -9.959E-03                                 F               0         Tower Z translation velocity, node 8, m/s
         91   -9.213E-03                                 F               0         Tower X translation velocity, node 9, m/s
         92   -2.334E-01                                 F               0         Tower Y translation velocity, node 9, m/s
         93   -1.103E-02                                 F               0         Tower Z translation velocity, node 9, m/s
         94   -1.026E-02                                 F               0         Tower X translation velocity, node 10, m/s
         95   -2.588E-01                                 F               0         Tower Y translation velocity, node 10, m/s
         96   -1.210E-02                                 F               0         Tower Z translation velocity, node 10, m/s
         97   -1.132E-02                                 F               0         Tower X translation velocity, node 11, m/s
         98   -2.843E-01                                 F               0         Tower Y translation velocity, node 11, m/s
         99   -1.317E-02                                 F               0         Tower Z translation velocity, node 11, m/s
        100    3.688E+01                                 F               0         Hub X translation displacement, node 1, m
        101   -7.498E+00                                 F               0         Hub Y translation displacement, node 1, m
        102   -6.309E-01                                 F               0         Hub Z translation displacement, node 1, m
        103    9.628E-01,  1.950E-02, -2.695E-01         F               0         Hub X orientation angle, node 1, rad
        104    9.833E-03, -9.993E-01, -3.718E-02         F               0         Hub Y orientation angle, node 1, rad
        105   -2.700E-01,  3.314E-02, -9.623E-01         F               0         Hub Z orientation angle, node 1, rad
        106    1.003E+00                                 F               0         Hub X rotation velocity, node 1, rad/s
        107    2.021E-02                                 F               0         Hub Y rotation velocity, node 1, rad/s
        108   -2.806E-01                                 F               0         Hub Z rotation velocity, node 1, rad/s
        109    9.621E-01,  4.914E-02, -2.683E-01         F               0         Blade root 1 X orientation angle, node 1, rad
        110    3.839E-02, -9.982E-01, -4.515E-02         F               0         Blade root 1 Y orientation angle, node 1, rad
        111   -2.700E-01,  3.314E-02, -9.623E-01         F               0         Blade root 1 Z orientation angle, node 1, rad
        112    9.695E-01,  3.819E-03, -2.452E-01         F               0         Blade root 2 X orientation angle, node 1, rad
        113   -2.101E-01,  5.287E-01, -8.224E-01         F               0         Blade root 2 Y orientation angle, node 1, rad
        114    1.265E-01,  8.488E-01,  5.133E-01         F               0         Blade root 2 Z orientation angle, node 1, rad
        115    9.556E-01,  5.522E-03, -2.947E-01         F               0         Blade root 3 X orientation angle, node 1, rad
        116    2.574E-01,  4.713E-01,  8.436E-01         F               0         Blade root 3 Y orientation angle, node 1, rad
        117    1.435E-01, -8.820E-01,  4.489E-01         F               0         Blade root 3 Z orientation angle, node 1, rad
        118    3.480E+01                                 F               0         Blade 1 X translation displacement, node 1, m
        119   -7.315E+00                                 F               0         Blade 1 Y translation displacement, node 1, m
        120   -1.147E+01                                 F               0         Blade 1 Z translation displacement, node 1, m
        121    3.430E+01                                 F               0         Blade 1 X translation displacement, node 2, m
        122   -7.270E+00                                 F               0         Blade 1 Y translation displacement, node 2, m
        123   -1.408E+01                                 F               0         Blade 1 Z translation displacement, node 2, m
        124    2.750E+01                                 F               0         Blade 1 X translation displacement, node 3, m
        125   -6.669E+00                                 F               0         Blade 1 Y translation displacement, node 3, m
        126   -4.960E+01                                 F               0         Blade 1 Z translation displacement, node 3, m
        127    2.605E+01                                 F               0         Blade 1 X translation displacement, node 4, m
        128   -6.541E+00                                 F               0         Blade 1 Y translation displacement, node 4, m
        129   -5.717E+01                                 F               0         Blade 1 Z translation displacement, node 4, m
        130    2.461E+01                                 F               0         Blade 1 X translation displacement, node 5, m
        131   -6.412E+00                                 F               0         Blade 1 Y translation displacement, node 5, m
        132   -6.474E+01                                 F               0         Blade 1 Z translation displacement, node 5, m
        133    2.316E+01                                 F               0         Blade 1 X translation displacement, node 6, m
        134   -6.284E+00                                 F               0         Blade 1 Y translation displacement, node 6, m
        135   -7.231E+01                                 F               0         Blade 1 Z translation displacement, node 6, m
        136    2.171E+01                                 F               0         Blade 1 X translation displacement, node 7, m
        137   -6.156E+00                                 F               0         Blade 1 Y translation displacement, node 7, m
        138   -7.988E+01                                 F               0         Blade 1 Z translation displacement, node 7, m
        139    2.026E+01                                 F               0         Blade 1 X translation displacement, node 8, m
        140   -6.028E+00                                 F               0         Blade 1 Y translation displacement, node 8, m
        141   -8.745E+01                                 F               0         Blade 1 Z translation displacement, node 8, m
        142    1.881E+01                                 F               0         Blade 1 X translation displacement, node 9, m
        143   -5.900E+00                                 F               0         Blade 1 Y translation displacement, node 9, m
        144   -9.501E+01                                 F               0         Blade 1 Z translation displacement, node 9, m
        145    1.736E+01                                 F               0         Blade 1 X translation displacement, node 10, m
        146   -5.772E+00                                 F               0         Blade 1 Y translation displacement, node 10, m
        147   -1.026E+02                                 F               0         Blade 1 Z translation displacement, node 10, m
        148    1.591E+01                                 F               0         Blade 1 X translation displacement, node 11, m
        149   -5.643E+00                                 F               0         Blade 1 Y translation displacement, node 11, m
        150   -1.102E+02                                 F               0         Blade 1 Z translation displacement, node 11, m
        151    1.446E+01                                 F               0         Blade 1 X translation displacement, node 12, m
        152   -5.515E+00                                 F               0         Blade 1 Y translation displacement, node 12, m
        153   -1.177E+02                                 F               0         Blade 1 Z translation displacement, node 12, m
        154    1.302E+01                                 F               0         Blade 1 X translation displacement, node 13, m
        155   -5.387E+00                                 F               0         Blade 1 Y translation displacement, node 13, m
        156   -1.253E+02                                 F               0         Blade 1 Z translation displacement, node 13, m
        157    1.157E+01                                 F               0         Blade 1 X translation displacement, node 14, m
        158   -5.259E+00                                 F               0         Blade 1 Y translation displacement, node 14, m
        159   -1.329E+02                                 F               0         Blade 1 Z translation displacement, node 14, m
        160    1.012E+01                                 F               0         Blade 1 X translation displacement, node 15, m
        161   -5.131E+00                                 F               0         Blade 1 Y translation displacement, node 15, m
        162   -1.404E+02                                 F               0         Blade 1 Z translation displacement, node 15, m
        163    8.670E+00                                 F               0         Blade 1 X translation displacement, node 16, m
        164   -5.002E+00                                 F               0         Blade 1 Y translation displacement, node 16, m
        165   -1.480E+02                                 F               0         Blade 1 Z translation displacement, node 16, m
        166    7.221E+00                                 F               0         Blade 1 X translation displacement, node 17, m
        167   -4.874E+00                                 F               0         Blade 1 Y translation displacement, node 17, m
        168   -1.556E+02                                 F               0         Blade 1 Z translation displacement, node 17, m
        169    5.773E+00                                 F               0         Blade 1 X translation displacement, node 18, m
        170   -4.746E+00                                 F               0         Blade 1 Y translation displacement, node 18, m
        171   -1.631E+02                                 F               0         Blade 1 Z translation displacement, node 18, m
        172    4.324E+00                                 F               0         Blade 1 X translation displacement, node 19, m
        173   -4.618E+00                                 F               0         Blade 1 Y translation displacement, node 19, m
        174   -1.707E+02                                 F               0         Blade 1 Z translation displacement, node 19, m
        175    2.875E+00                                 F               0         Blade 1 X translation displacement, node 20, m
        176   -4.490E+00                                 F               0         Blade 1 Y translation displacement, node 20, m
        177   -1.783E+02                                 F               0         Blade 1 Z translation displacement, node 20, m
        178    1.427E+00                                 F               0         Blade 1 X translation displacement, node 21, m
        179   -4.362E+00                                 F               0         Blade 1 Y translation displacement, node 21, m
        180   -1.858E+02                                 F               0         Blade 1 Z translation displacement, node 21, m
        181   -2.206E-02                                 F               0         Blade 1 X translation displacement, node 22, m
        182   -4.233E+00                                 F               0         Blade 1 Y translation displacement, node 22, m
        183   -1.934E+02                                 F               0         Blade 1 Z translation displacement, node 22, m
        184   -1.471E+00                                 F               0         Blade 1 X translation displacement, node 23, m
        185   -4.105E+00                                 F               0         Blade 1 Y translation displacement, node 23, m
        186   -2.010E+02                                 F               0         Blade 1 Z translation displacement, node 23, m
        187   -2.919E+00                                 F               0         Blade 1 X translation displacement, node 24, m
        188   -3.977E+00                                 F               0         Blade 1 Y translation displacement, node 24, m
        189   -2.085E+02                                 F               0         Blade 1 Z translation displacement, node 24, m
        190   -4.368E+00                                 F               0         Blade 1 X translation displacement, node 25, m
        191   -3.849E+00                                 F               0         Blade 1 Y translation displacement, node 25, m
        192   -2.161E+02                                 F               0         Blade 1 Z translation displacement, node 25, m
        193   -5.817E+00                                 F               0         Blade 1 X translation displacement, node 26, m
        194   -3.721E+00                                 F               0         Blade 1 Y translation displacement, node 26, m
        195   -2.237E+02                                 F               0         Blade 1 Z translation displacement, node 26, m
        196   -7.265E+00                                 F               0         Blade 1 X translation displacement, node 27, m
        197   -3.592E+00                                 F               0         Blade 1 Y translation displacement, node 27, m
        198   -2.312E+02                                 F               0         Blade 1 Z translation displacement, node 27, m
        199   -8.493E+00                                 F               0         Blade 1 X translation displacement, node 28, m
        200   -3.484E+00                                 F               0         Blade 1 Y translation displacement, node 28, m
        201   -2.377E+02                                 F               0         Blade 1 Z translation displacement, node 28, m
        202    8.387E-01,  4.989E-01, -2.182E-01         F               0         Blade 1 X orientation angle, node 1, rad
        203    4.729E-01, -8.660E-01, -1.625E-01         F               0         Blade 1 Y orientation angle, node 1, rad
        204   -2.700E-01,  3.314E-02, -9.623E-01         F               0         Blade 1 Z orientation angle, node 1, rad
        205    8.387E-01,  4.989E-01, -2.182E-01         F               0         Blade 1 X orientation angle, node 2, rad
        206    4.729E-01, -8.660E-01, -1.625E-01         F               0         Blade 1 Y orientation angle, node 2, rad
        207   -2.700E-01,  3.314E-02, -9.623E-01         F               0         Blade 1 Z orientation angle, node 2, rad
        208    9.269E-01,  2.795E-01, -2.505E-01         F               0         Blade 1 X orientation angle, node 3, rad
        209    2.606E-01, -9.596E-01, -1.062E-01         F               0         Blade 1 Y orientation angle, node 3, rad
        210   -2.700E-01,  3.314E-02, -9.623E-01         F               0         Blade 1 Z orientation angle, node 3, rad
        211    9.371E-01,  2.387E-01, -2.547E-01         F               0         Blade 1 X orientation angle, node 4, rad
        212    2.213E-01, -9.705E-01, -9.552E-02         F               0         Blade 1 Y orientation angle, node 4, rad
        213   -2.700E-01,  3.314E-02, -9.623E-01         F               0         Blade 1 Z orientation angle, node 4, rad
        214    9.439E-01,  2.064E-01, -2.578E-01         F               0         Blade 1 X orientation angle, node 5, rad
        215    1.901E-01, -9.779E-01, -8.702E-02         F               0         Blade 1 Y orientation angle, node 5, rad
        216   -2.700E-01,  3.314E-02, -9.623E-01         F               0         Blade 1 Z orientation angle, node 5, rad
        217    9.486E-01,  1.804E-01, -2.600E-01         F               0         Blade 1 X orientation angle, node 6, rad
        218    1.650E-01, -9.830E-01, -8.015E-02         F               0         Blade 1 Y orientation angle, node 6, rad
        219   -2.700E-01,  3.314E-02, -9.623E-01         F               0         Blade 1 Z orientation angle, node 6, rad
        220    9.520E-01,  1.589E-01, -2.617E-01         F               0         Blade 1 X orientation angle, node 7, rad
        221    1.442E-01, -9.867E-01, -7.446E-02         F               0         Blade 1 Y orientation angle, node 7, rad
        222   -2.700E-01,  3.314E-02, -9.623E-01         F               0         Blade 1 Z orientation angle, node 7, rad
        223    9.544E-01,  1.410E-01, -2.630E-01         F               0         Blade 1 X orientation angle, node 8, rad
        224    1.269E-01, -9.895E-01, -6.970E-02         F               0         Blade 1 Y orientation angle, node 8, rad
        225   -2.700E-01,  3.314E-02, -9.623E-01         F               0         Blade 1 Z orientation angle, node 8, rad
        226    9.563E-01,  1.257E-01, -2.640E-01         F               0         Blade 1 X orientation angle, node 9, rad
        227    1.123E-01, -9.915E-01, -6.565E-02         F               0         Blade 1 Y orientation angle, node 9, rad