
Linearized model: Predictions were generated on 06-Feb-2024 at 08:44:08 using OpenFAST, compiled as a 64-bit application using single precision at commit v3.5.1
 linked with  NWTC Subroutine Library; ElastoDyn; InflowWind; AeroDyn; ServoDyn; HydroDyn; MAP++ (<1.20.10>, <Oct-20-2023>)

Description from the FAST input file: CCT-9 Campign 4 model. Input files to be run with OpenFAST 3.5.0. GitHub branch from Lu Wang (https://github.com/luwang00/openfast/tree/dev) compiled on March 7, 2023.

Simulation information:
   Simulation time:                  2503.4000 s
   Rotor Speed:                         0.8855 rad/s
   Azimuth:                             6.1622 rad
   Wind Speed:                         10.0000 m/s
   Number of continuous states:         0
   Number of discrete states:           0
   Number of constraint states:         0
   Number of inputs:                 1746
   Number of outputs:                   4
   Jacobians included in this file?    No

Order of inputs:
     Column   Operating Point                     Rotating Frame? Derivative Order Description
   ---------- ---------------                     --------------- ---------------- -----------
          1    1.391E+01                                 F               0         Tower X translation displacement, node 1, m
          2    7.001E-02                                 F               0         Tower Y translation displacement, node 1, m
          3   -1.835E-01                                 F               0         Tower Z translation displacement, node 1, m
          4    1.488E+01                                 F               0         Tower X translation displacement, node 2, m
          5    1.008E-01                                 F               0         Tower Y translation displacement, node 2, m
          6   -2.221E-01                                 F               0         Tower Z translation displacement, node 2, m
          7    1.588E+01                                 F               0         Tower X translation displacement, node 3, m
          8    1.322E-01                                 F               0         Tower Y translation displacement, node 3, m
          9   -2.623E-01                                 F               0         Tower Z translation displacement, node 3, m
         10    1.689E+01                                 F               0         Tower X translation displacement, node 4, m
         11    1.641E-01                                 F               0         Tower Y translation displacement, node 4, m
         12   -3.037E-01                                 F               0         Tower Z translation displacement, node 4, m
         13    1.791E+01                                 F               0         Tower X translation displacement, node 5, m
         14    1.963E-01                                 F               0         Tower Y translation displacement, node 5, m
         15   -3.462E-01                                 F               0         Tower Z translation displacement, node 5, m
         16    1.894E+01                                 F               0         Tower X translation displacement, node 6, m
         17    2.289E-01                                 F               0         Tower Y translation displacement, node 6, m
         18   -3.895E-01                                 F               0         Tower Z translation displacement, node 6, m
         19    1.998E+01                                 F               0         Tower X translation displacement, node 7, m
         20    2.618E-01                                 F               0         Tower Y translation displacement, node 7, m
         21   -4.334E-01                                 F               0         Tower Z translation displacement, node 7, m
         22    2.103E+01                                 F               0         Tower X translation displacement, node 8, m
         23    2.949E-01                                 F               0         Tower Y translation displacement, node 8, m
         24   -4.778E-01                                 F               0         Tower Z translation displacement, node 8, m
         25    2.208E+01                                 F               0         Tower X translation displacement, node 9, m
         26    3.281E-01                                 F               0         Tower Y translation displacement, node 9, m
         27   -5.225E-01                                 F               0         Tower Z translation displacement, node 9, m
         28    2.313E+01                                 F               0         Tower X translation displacement, node 10, m
         29    3.615E-01                                 F               0         Tower Y translation displacement, node 10, m
         30   -5.674E-01                                 F               0         Tower Z translation displacement, node 10, m
         31    2.418E+01                                 F               0         Tower X translation displacement, node 11, m
         32    3.950E-01                                 F               0         Tower Y translation displacement, node 11, m
         33   -6.125E-01                                 F               0         Tower Z translation displacement, node 11, m
         34    9.969E-01,  1.324E-03, -7.828E-02         F               0         Tower X orientation angle, node 1, rad
         35   -1.514E-03,  1.000E+00, -2.364E-03         F               0         Tower Y orientation angle, node 1, rad
         36    7.828E-02,  2.476E-03,  9.969E-01         F               0         Tower Z orientation angle, node 1, rad
         37    9.968E-01,  1.321E-03, -7.982E-02         F               0         Tower X orientation angle, node 2, rad
         38   -1.517E-03,  1.000E+00, -2.406E-03         F               0         Tower Y orientation angle, node 2, rad
         39    7.981E-02,  2.520E-03,  9.968E-01         F               0         Tower Z orientation angle, node 2, rad
         40    9.967E-01,  1.317E-03, -8.115E-02         F               0         Tower X orientation angle, node 3, rad
         41   -1.521E-03,  1.000E+00, -2.444E-03         F               0         Tower Y orientation angle, node 3, rad
         42    8.115E-02,  2.559E-03,  9.967E-01         F               0         Tower Z orientation angle, node 3, rad
         43    9.966E-01,  1.314E-03, -8.228E-02         F               0         Tower X orientation angle, node 4, rad
         44   -1.523E-03,  1.000E+00, -2.477E-03         F               0         Tower Y orientation angle, node 4, rad
         45    8.227E-02,  2.594E-03,  9.966E-01         F               0         Tower Z orientation angle, node 4, rad
         46    9.965E-01,  1.312E-03, -8.319E-02         F               0         Tower X orientation angle, node 5, rad
         47   -1.526E-03,  1.000E+00, -2.506E-03         F               0         Tower Y orientation angle, node 5, rad
         48    8.319E-02,  2.624E-03,  9.965E-01         F               0         Tower Z orientation angle, node 5, rad
         49    9.965E-01,  1.310E-03, -8.391E-02         F               0         Tower X orientation angle, node 6, rad
         50   -1.528E-03,  1.000E+00, -2.530E-03         F               0         Tower Y orientation angle, node 6, rad
         51    8.391E-02,  2.649E-03,  9.965E-01         F               0         Tower Z orientation angle, node 6, rad
         52    9.964E-01,  1.309E-03, -8.444E-02         F               0         Tower X orientation angle, node 7, rad
         53   -1.529E-03,  1.000E+00, -2.550E-03         F               0         Tower Y orientation angle, node 7, rad
         54    8.444E-02,  2.670E-03,  9.964E-01         F               0         Tower Z orientation angle, node 7, rad
         55    9.964E-01,  1.307E-03, -8.483E-02         F               0         Tower X orientation angle, node 8, rad
         56   -1.531E-03,  1.000E+00, -2.565E-03         F               0         Tower Y orientation angle, node 8, rad
         57    8.482E-02,  2.686E-03,  9.964E-01         F               0         Tower Z orientation angle, node 8, rad
         58    9.964E-01,  1.307E-03, -8.509E-02         F               0         Tower X orientation angle, node 9, rad
         59   -1.532E-03,  1.000E+00, -2.576E-03         F               0         Tower Y orientation angle, node 9, rad
         60    8.508E-02,  2.697E-03,  9.964E-01         F               0         Tower Z orientation angle, node 9, rad
         61    9.964E-01,  1.306E-03, -8.524E-02         F               0         Tower X orientation angle, node 10, rad
         62   -1.532E-03,  1.000E+00, -2.584E-03         F               0         Tower Y orientation angle, node 10, rad
         63    8.524E-02,  2.705E-03,  9.964E-01         F               0         Tower Z orientation angle, node 10, rad
         64    9.964E-01,  1.306E-03, -8.532E-02         F               0         Tower X orientation angle, node 11, rad
         65   -1.533E-03,  1.000E+00, -2.588E-03         F               0         Tower Y orientation angle, node 11, rad
         66    8.531E-02,  2.709E-03,  9.964E-01         F               0         Tower Z orientation angle, node 11, rad
         67   -2.884E-04                                 F               0         Tower X translation velocity, node 1, m/s
         68    7.291E-03                                 F               0         Tower Y translation velocity, node 1, m/s
         69    6.802E-04                                 F               0         Tower Z translation velocity, node 1, m/s
         70   -3.873E-04                                 F               0         Tower X translation velocity, node 2, m/s
         71    1.199E-02                                 F               0         Tower Y translation velocity, node 2, m/s
         72    6.762E-04                                 F               0         Tower Z translation velocity, node 2, m/s
         73   -4.164E-04                                 F               0         Tower X translation velocity, node 3, m/s
         74    1.677E-02                                 F               0         Tower Y translation velocity, node 3, m/s
         75    6.664E-04                                 F               0         Tower Z translation velocity, node 3, m/s
         76   -3.884E-04                                 F               0         Tower X translation velocity, node 4, m/s
         77    2.163E-02                                 F               0         Tower Y translation velocity, node 4, m/s
         78    6.515E-04                                 F               0         Tower Z translation velocity, node 4, m/s
         79   -3.090E-04                                 F               0         Tower X translation velocity, node 5, m/s
         80    2.654E-02                                 F               0         Tower Y translation velocity, node 5, m/s
         81    6.320E-04                                 F               0         Tower Z translation velocity, node 5, m/s
         82   -1.842E-04                                 F               0         Tower X translation velocity, node 6, m/s
         83    3.151E-02                                 F               0         Tower Y translation velocity, node 6, m/s
         84    6.084E-04                                 F               0         Tower Z translation velocity, node 6, m/s
         85   -2.323E-05                                 F               0         Tower X translation velocity, node 7, m/s
         86    3.652E-02                                 F               0         Tower Y translation velocity, node 7, m/s
         87    5.815E-04                                 F               0         Tower Z translation velocity, node 7, m/s
         88    1.711E-04                                 F               0         Tower X translation velocity, node 8, m/s
         89    4.156E-02                                 F               0         Tower Y translation velocity, node 8, m/s
         90    5.514E-04                                 F               0         Tower Z translation velocity, node 8, m/s
         91    3.918E-04                                 F               0         Tower X translation velocity, node 9, m/s
         92    4.662E-02                                 F               0         Tower Y translation velocity, node 9, m/s
         93    5.189E-04                                 F               0         Tower Z translation velocity, node 9, m/s
         94    6.316E-04                                 F               0         Tower X translation velocity, node 10, m/s
         95    5.170E-02                                 F               0         Tower Y translation velocity, node 10, m/s
         96    4.846E-04                                 F               0         Tower Z translation velocity, node 10, m/s
         97    8.836E-04                                 F               0         Tower X translation velocity, node 11, m/s
         98    5.680E-02                                 F               0         Tower Y translation velocity, node 11, m/s
         99    4.492E-04                                 F               0         Tower Z translation velocity, node 11, m/s
        100    2.489E+01                                 F               0         Hub X translation displacement, node 1, m
        101    4.021E-01                                 F               0         Hub Y translation displacement, node 1, m
        102    2.803E-01                                 F               0         Hub Z translation displacement, node 1, m
        103    9.820E-01,  1.016E-03, -1.890E-01         F               0         Hub X orientation angle, node 1, rad
        104   -2.432E-02,  9.923E-01, -1.211E-01         F               0         Hub Y orientation angle, node 1, rad
        105    1.874E-01,  1.235E-01,  9.745E-01         F               0         Hub Z orientation angle, node 1, rad
        106    8.691E-01                                 F               0         Hub X rotation velocity, node 1, rad/s
        107    9.202E-04                                 F               0         Hub Y rotation velocity, node 1, rad/s
        108   -1.673E-01                                 F               0         Hub Z rotation velocity, node 1, rad/s
        109    9.823E-01, -2.842E-02, -1.853E-01         F               0         Blade root 1 X orientation angle, node 1, rad
        110    4.818E-03,  9.919E-01, -1.266E-01         F               0         Blade root 1 Y orientation angle, node 1, rad
        111    1.874E-01,  1.235E-01,  9.745E-01         F               0         Blade root 1 Z orientation angle, node 1, rad
        112    9.764E-01,  1.256E-02, -2.157E-01         F               0         Blade root 2 X orientation angle, node 1, rad
        113    2.035E-01, -3.890E-01,  8.985E-01         F               0         Blade root 2 Y orientation angle, node 1, rad
        114   -7.265E-02, -9.211E-01, -3.824E-01         F               0         Blade root 2 Z orientation angle, node 1, rad
        115    9.860E-01,  1.891E-02, -1.657E-01         F               0         Blade root 3 X orientation angle, node 1, rad
        116   -1.210E-01, -6.028E-01, -7.887E-01         F               0         Blade root 3 Y orientation angle, node 1, rad
        117   -1.148E-01,  7.977E-01, -5.921E-01         F               0         Blade root 3 Z orientation angle, node 1, rad
        118    2.535E+01                                 F               0         Blade 1 X translation displacement, node 1, m
        119    1.086E+00                                 F               0         Blade 1 Y translation displacement, node 1, m
        120    1.693E-01                                 F               0         Blade 1 Z translation displacement, node 1, m
        121    2.546E+01                                 F               0         Blade 1 X translation displacement, node 2, m
        122    1.251E+00                                 F               0         Blade 1 Y translation displacement, node 2, m
        123    1.426E-01                                 F               0         Blade 1 Z translation displacement, node 2, m
        124    2.697E+01                                 F               0         Blade 1 X translation displacement, node 3, m
        125    3.492E+00                                 F               0         Blade 1 Y translation displacement, node 3, m
        126   -2.211E-01                                 F               0         Blade 1 Z translation displacement, node 3, m
        127    2.729E+01                                 F               0         Blade 1 X translation displacement, node 4, m
        128    3.970E+00                                 F               0         Blade 1 Y translation displacement, node 4, m
        129   -2.986E-01                                 F               0         Blade 1 Z translation displacement, node 4, m
        130    2.761E+01                                 F               0         Blade 1 X translation displacement, node 5, m
        131    4.447E+00                                 F               0         Blade 1 Y translation displacement, node 5, m
        132   -3.761E-01                                 F               0         Blade 1 Z translation displacement, node 5, m
        133    2.793E+01                                 F               0         Blade 1 X translation displacement, node 6, m
        134    4.925E+00                                 F               0         Blade 1 Y translation displacement, node 6, m
        135   -4.536E-01                                 F               0         Blade 1 Z translation displacement, node 6, m
        136    2.825E+01                                 F               0         Blade 1 X translation displacement, node 7, m
        137    5.402E+00                                 F               0         Blade 1 Y translation displacement, node 7, m
        138   -5.310E-01                                 F               0         Blade 1 Z translation displacement, node 7, m
        139    2.857E+01                                 F               0         Blade 1 X translation displacement, node 8, m
        140    5.880E+00                                 F               0         Blade 1 Y translation displacement, node 8, m
        141   -6.085E-01                                 F               0         Blade 1 Z translation displacement, node 8, m
        142    2.889E+01                                 F               0         Blade 1 X translation displacement, node 9, m
        143    6.357E+00                                 F               0         Blade 1 Y translation displacement, node 9, m
        144   -6.860E-01                                 F               0         Blade 1 Z translation displacement, node 9, m
        145    2.921E+01                                 F               0         Blade 1 X translation displacement, node 10, m
        146    6.835E+00                                 F               0         Blade 1 Y translation displacement, node 10, m
        147   -7.635E-01                                 F               0         Blade 1 Z translation displacement, node 10, m
        148    2.953E+01                                 F               0         Blade 1 X translation displacement, node 11, m
        149    7.312E+00                                 F               0         Blade 1 Y translation displacement, node 11, m
        150   -8.410E-01                                 F               0         Blade 1 Z translation displacement, node 11, m
        151    2.985E+01                                 F               0         Blade 1 X translation displacement, node 12, m
        152    7.790E+00                                 F               0         Blade 1 Y translation displacement, node 12, m
        153   -9.185E-01                                 F               0         Blade 1 Z translation displacement, node 12, m
        154    3.017E+01                                 F               0         Blade 1 X translation displacement, node 13, m
        155    8.268E+00                                 F               0         Blade 1 Y translation displacement, node 13, m
        156   -9.959E-01                                 F               0         Blade 1 Z translation displacement, node 13, m
        157    3.050E+01                                 F               0         Blade 1 X translation displacement, node 14, m
        158    8.745E+00                                 F               0         Blade 1 Y translation displacement, node 14, m
        159   -1.073E+00                                 F               0         Blade 1 Z translation displacement, node 14, m
        160    3.082E+01                                 F               0         Blade 1 X translation displacement, node 15, m
        161    9.223E+00                                 F               0         Blade 1 Y translation displacement, node 15, m
        162   -1.151E+00                                 F               0         Blade 1 Z translation displacement, node 15, m
        163    3.114E+01                                 F               0         Blade 1 X translation displacement, node 16, m
        164    9.700E+00                                 F               0         Blade 1 Y translation displacement, node 16, m
        165   -1.228E+00                                 F               0         Blade 1 Z translation displacement, node 16, m
        166    3.146E+01                                 F               0         Blade 1 X translation displacement, node 17, m
        167    1.018E+01                                 F               0         Blade 1 Y translation displacement, node 17, m
        168   -1.306E+00                                 F               0         Blade 1 Z translation displacement, node 17, m
        169    3.178E+01                                 F               0         Blade 1 X translation displacement, node 18, m
        170    1.066E+01                                 F               0         Blade 1 Y translation displacement, node 18, m
        171   -1.383E+00                                 F               0         Blade 1 Z translation displacement, node 18, m
        172    3.210E+01                                 F               0         Blade 1 X translation displacement, node 19, m
        173    1.113E+01                                 F               0         Blade 1 Y translation displacement, node 19, m
        174   -1.461E+00                                 F               0         Blade 1 Z translation displacement, node 19, m
        175    3.242E+01                                 F               0         Blade 1 X translation displacement, node 20, m
        176    1.161E+01                                 F               0         Blade 1 Y translation displacement, node 20, m
        177   -1.538E+00                                 F               0         Blade 1 Z translation displacement, node 20, m
        178    3.274E+01                                 F               0         Blade 1 X translation displacement, node 21, m
        179    1.209E+01                                 F               0         Blade 1 Y translation displacement, node 21, m
        180   -1.616E+00                                 F               0         Blade 1 Z translation displacement, node 21, m
        181    3.306E+01                                 F               0         Blade 1 X translation displacement, node 22, m
        182    1.257E+01                                 F               0         Blade 1 Y translation displacement, node 22, m
        183   -1.693E+00                                 F               0         Blade 1 Z translation displacement, node 22, m
        184    3.338E+01                                 F               0         Blade 1 X translation displacement, node 23, m
        185    1.304E+01                                 F               0         Blade 1 Y translation displacement, node 23, m
        186   -1.771E+00                                 F               0         Blade 1 Z translation displacement, node 23, m
        187    3.370E+01                                 F               0         Blade 1 X translation displacement, node 24, m
        188    1.352E+01                                 F               0         Blade 1 Y translation displacement, node 24, m
        189   -1.848E+00                                 F               0         Blade 1 Z translation displacement, node 24, m
        190    3.402E+01                                 F               0         Blade 1 X translation displacement, node 25, m
        191    1.400E+01                                 F               0         Blade 1 Y translation displacement, node 25, m
        192   -1.926E+00                                 F               0         Blade 1 Z translation displacement, node 25, m
        193    3.434E+01                                 F               0         Blade 1 X translation displacement, node 26, m
        194    1.448E+01                                 F               0         Blade 1 Y translation displacement, node 26, m
        195   -2.003E+00                                 F               0         Blade 1 Z translation displacement, node 26, m
        196    3.466E+01                                 F               0         Blade 1 X translation displacement, node 27, m
        197    1.495E+01                                 F               0         Blade 1 Y translation displacement, node 27, m
        198   -2.081E+00                                 F               0         Blade 1 Z translation displacement, node 27, m
        199    3.494E+01                                 F               0         Blade 1 X translation displacement, node 28, m
        200    1.536E+01                                 F               0         Blade 1 Y translation displacement, node 28, m
        201   -2.146E+00                                 F               0         Blade 1 Z translation displacement, node 28, m
        202    8.720E-01, -4.776E-01, -1.072E-01         F               0         Blade 1 X orientation angle, node 1, rad
        203    4.522E-01,  8.698E-01, -1.972E-01         F               0         Blade 1 Y orientation angle, node 1, rad
        204    1.874E-01,  1.235E-01,  9.745E-01         F               0         Blade 1 Z orientation angle, node 1, rad
        205    8.720E-01, -4.776E-01, -1.072E-01         F               0         Blade 1 X orientation angle, node 2, rad
        206    4.522E-01,  8.698E-01, -1.972E-01         F               0         Blade 1 Y orientation angle, node 2, rad
        207    1.874E-01,  1.235E-01,  9.745E-01         F               0         Blade 1 Z orientation angle, node 2, rad
        208    9.543E-01, -2.579E-01, -1.509E-01         F               0         Blade 1 X orientation angle, node 3, rad
        209    2.327E-01,  9.583E-01, -1.662E-01         F               0         Blade 1 Y orientation angle, node 3, rad
        210    1.874E-01,  1.235E-01,  9.745E-01         F               0         Blade 1 Z orientation angle, node 3, rad
        211    9.633E-01, -2.172E-01, -1.578E-01         F               0         Blade 1 X orientation angle, node 4, rad
        212    1.922E-01,  9.683E-01, -1.596E-01         F               0         Blade 1 Y orientation angle, node 4, rad
        213    1.874E-01,  1.235E-01,  9.745E-01         F               0         Blade 1 Z orientation angle, node 4, rad
        214    9.691E-01, -1.849E-01, -1.630E-01         F               0         Blade 1 X orientation angle, node 5, rad
        215    1.601E-01,  9.750E-01, -1.543E-01         F               0         Blade 1 Y orientation angle, node 5, rad
        216    1.874E-01,  1.235E-01,  9.745E-01         F               0         Blade 1 Z orientation angle, node 5, rad
        217    9.730E-01, -1.590E-01, -1.670E-01         F               0         Blade 1 X orientation angle, node 6, rad
        218    1.343E-01,  9.795E-01, -1.499E-01         F               0         Blade 1 Y orientation angle, node 6, rad
        219    1.874E-01,  1.235E-01,  9.745E-01         F               0         Blade 1 Z orientation angle, node 6, rad
        220    9.757E-01, -1.376E-01, -1.702E-01         F               0         Blade 1 X orientation angle, node 7, rad
        221    1.131E-01,  9.828E-01, -1.463E-01         F               0         Blade 1 Y orientation angle, node 7, rad
        222    1.874E-01,  1.235E-01,  9.745E-01         F               0         Blade 1 Z orientation angle, node 7, rad
        223    9.776E-01, -1.198E-01, -1.729E-01         F               0         Blade 1 X orientation angle, node 8, rad
        224    9.536E-02,  9.851E-01, -1.432E-01         F               0         Blade 1 Y orientation angle, node 8, rad
        225    1.874E-01,  1.235E-01,  9.745E-01         F               0         Blade 1 Z orientation angle, node 8, rad
        226    9.790E-01, -1.046E-01, -1.750E-01         F               0         Blade 1 X orientation angle, node 9, rad
        227    8.033E-02,  9.868E-01, -1.405E-01         F               0         Blade 1 Y orientation angle, node 9, rad