
Linearized model: Predictions were generated on 13-Feb-2024 at 12:12:09 using OpenFAST, compiled as a 64-bit application using single precision at commit v3.5.1
 linked with  NWTC Subroutine Library; ElastoDyn; InflowWind; AeroDyn; ServoDyn; HydroDyn; MAP++ (<1.20.10>, <Oct-20-2023>)

Description from the FAST input file: CCT-9 Campign 4 model. Input files to be run with OpenFAST 3.5.0. GitHub branch from Lu Wang (https://github.com/luwang00/openfast/tree/dev) compiled on March 7, 2023.

Simulation information:
   Simulation time:                   774.6250 s
   Rotor Speed:                         0.7921 rad/s
   Azimuth:                             3.3176 rad
   Wind Speed:                         24.0000 m/s
   Number of continuous states:        22
   Number of discrete states:           0
   Number of constraint states:         0
   Number of inputs:                 1890
   Number of outputs:                  25
   Jacobians included in this file?    No

Order of continuous states:
   Row/Column Operating Point                                                   Rotating Frame? Derivative Order Description
   ---------- ---------------                                                   --------------- ---------------- -----------
          1     6.82469177246E+000                                                     F               2         Platform horizontal surge translation DOF (internal DOF index = DOF_Sg), m
          2    -8.26182484627E-001                                                     F               2         Platform horizontal sway translation DOF (internal DOF index = DOF_Sw), m
          3    -1.07570126653E-001                                                     F               2         Platform vertical heave translation DOF (internal DOF index = DOF_Hv), m
          4     5.44261336327E-002                                                     F               2         Platform roll tilt rotation DOF (internal DOF index = DOF_R), rad
          5     9.52939987183E-002                                                     F               2         Platform pitch tilt rotation DOF (internal DOF index = DOF_P), rad
          6    -9.30293183774E-003                                                     F               2         Platform yaw rotation DOF (internal DOF index = DOF_Y), rad
          7     5.29116690159E-001                                                     F               2         1st tower fore-aft bending mode DOF (internal DOF index = DOF_TFA1), m
          8     2.60010153055E-001                                                     F               2         1st tower side-to-side bending mode DOF (internal DOF index = DOF_TSS1), m
          9     1.51283061132E-003                                                     F               2         2nd tower fore-aft bending mode DOF (internal DOF index = DOF_TFA2), m
         10    -2.91611126158E-004                                                     F               2         2nd tower side-to-side bending mode DOF (internal DOF index = DOF_TSS2), m
         11     1.74683642387E+000                                                     F               2         Variable speed generator DOF (internal DOF index = DOF_GeAz), rad
         12     2.64364550821E-003                                                     F               2         First time derivative of Platform horizontal surge translation DOF (internal DOF index = DOF_Sg), m/s
         13     1.93405244499E-003                                                     F               2         First time derivative of Platform horizontal sway translation DOF (internal DOF index = DOF_Sw), m/s
         14    -2.82520940527E-003                                                     F               2         First time derivative of Platform vertical heave translation DOF (internal DOF index = DOF_Hv), m/s
         15    -6.09283815720E-005                                                     F               2         First time derivative of Platform roll tilt rotation DOF (internal DOF index = DOF_R), rad/s
         16     1.36356960866E-004                                                     F               2         First time derivative of Platform pitch tilt rotation DOF (internal DOF index = DOF_P), rad/s
         17     2.12853192352E-005                                                     F               2         First time derivative of Platform yaw rotation DOF (internal DOF index = DOF_Y), rad/s
         18    -3.17924655974E-002                                                     F               2         First time derivative of 1st tower fore-aft bending mode DOF (internal DOF index = DOF_TFA1), m/s
         19     1.21854087338E-002                                                     F               2         First time derivative of 1st tower side-to-side bending mode DOF (internal DOF index = DOF_TSS1), m/s
         20     2.82219756627E-004                                                     F               2         First time derivative of 2nd tower fore-aft bending mode DOF (internal DOF index = DOF_TFA2), m/s
         21     1.76597350219E-005                                                     F               2         First time derivative of 2nd tower side-to-side bending mode DOF (internal DOF index = DOF_TSS2), m/s
         22     7.92090117931E-001                                                     F               2         First time derivative of Variable speed generator DOF (internal DOF index = DOF_GeAz), rad/s

Order of continuous state derivatives:
   Row/Column Operating Point                                                   Rotating Frame? Derivative Order Description
   ---------- ---------------                                                   --------------- ---------------- -----------
          1     2.64364550821E-003                                                     F               2         First time derivative of Platform horizontal surge translation DOF (internal DOF index = DOF_Sg), m/s
          2     1.93405244499E-003                                                     F               2         First time derivative of Platform horizontal sway translation DOF (internal DOF index = DOF_Sw), m/s
          3    -2.82520940527E-003                                                     F               2         First time derivative of Platform vertical heave translation DOF (internal DOF index = DOF_Hv), m/s
          4    -6.09283815720E-005                                                     F               2         First time derivative of Platform roll tilt rotation DOF (internal DOF index = DOF_R), rad/s
          5     1.36356960866E-004                                                     F               2         First time derivative of Platform pitch tilt rotation DOF (internal DOF index = DOF_P), rad/s
          6     2.12853192352E-005                                                     F               2         First time derivative of Platform yaw rotation DOF (internal DOF index = DOF_Y), rad/s
          7    -3.17924655974E-002                                                     F               2         First time derivative of 1st tower fore-aft bending mode DOF (internal DOF index = DOF_TFA1), m/s
          8     1.21854087338E-002                                                     F               2         First time derivative of 1st tower side-to-side bending mode DOF (internal DOF index = DOF_TSS1), m/s
          9     2.82219756627E-004                                                     F               2         First time derivative of 2nd tower fore-aft bending mode DOF (internal DOF index = DOF_TFA2), m/s
         10     1.76597350219E-005                                                     F               2         First time derivative of 2nd tower side-to-side bending mode DOF (internal DOF index = DOF_TSS2), m/s
         11     7.92090117931E-001                                                     F               2         First time derivative of Variable speed generator DOF (internal DOF index = DOF_GeAz), rad/s
         12    -7.74503638968E-003                                                     F               2         First time derivative of First time derivative of Platform horizontal surge translation DOF (internal DOF index = DOF_Sg), m/s/s
         13     3.97278042510E-003                                                     F               2         First time derivative of First time derivative of Platform horizontal sway translation DOF (internal DOF index = DOF_Sw), m/s/s
         14    -7.56763794925E-004                                                     F               2         First time derivative of First time derivative of Platform vertical heave translation DOF (internal DOF index = DOF_Hv), m/s/s
         15    -2.33139362535E-004                                                     F               2         First time derivative of First time derivative of Platform roll tilt rotation DOF (internal DOF index = DOF_R), rad/s/s
         16    -4.89376601763E-004                                                     F               2         First time derivative of First time derivative of Platform pitch tilt rotation DOF (internal DOF index = DOF_P), rad/s/s
         17    -2.51689034485E-005                                                     F               2         First time derivative of First time derivative of Platform yaw rotation DOF (internal DOF index = DOF_Y), rad/s/s
         18     1.10124580562E-001                                                     F               2         First time derivative of First time derivative of 1st tower fore-aft bending mode DOF (internal DOF index = DOF_TFA1), m/s/s
         19     5.28402812779E-002                                                     F               2         First time derivative of First time derivative of 1st tower side-to-side bending mode DOF (internal DOF index = DOF_TSS1), m/s/s
         20     8.22225236334E-004                                                     F               2         First time derivative of First time derivative of 2nd tower fore-aft bending mode DOF (internal DOF index = DOF_TFA2), m/s/s
         21    -4.03450190788E-004                                                     F               2         First time derivative of First time derivative of 2nd tower side-to-side bending mode DOF (internal DOF index = DOF_TSS2), m/s/s
         22    -9.90274944343E-004                                                     F               2         First time derivative of First time derivative of Variable speed generator DOF (internal DOF index = DOF_GeAz), rad/s/s

Order of inputs:
     Column   Operating Point                                                   Rotating Frame? Derivative Order Description
   ---------- ---------------                                                   --------------- ---------------- -----------
          1     3.56183288574E+002                                                     F               0         Blade 1 X force, node 1, N
          2    -7.97459106445E+001                                                     F               0         Blade 1 Y force, node 1, N
          3    -9.37438964844E+001                                                     F               0         Blade 1 Z force, node 1, N
          4     1.37454565430E+003                                                     F               0         Blade 1 X force, node 2, N
          5    -1.44634994507E+002                                                     F               0         Blade 1 Y force, node 2, N
          6    -3.21997589111E+002                                                     F               0         Blade 1 Z force, node 2, N
          7     1.48086901855E+003                                                     F               0         Blade 1 X force, node 3, N
          8     9.47084121704E+001                                                     F               0         Blade 1 Y force, node 3, N
          9    -2.85821380615E+002                                                     F               0         Blade 1 Z force, node 3, N
         10     1.72939062500E+003                                                     F               0         Blade 1 X force, node 4, N
         11     3.20704467773E+002                                                     F               0         Blade 1 Y force, node 4, N
         12    -2.82562347412E+002                                                     F               0         Blade 1 Z force, node 4, N
         13     1.97792663574E+003                                                     F               0         Blade 1 X force, node 5, N
         14     5.46705139160E+002                                                     F               0         Blade 1 Y force, node 5, N
         15    -2.79305236816E+002                                                     F               0         Blade 1 Z force, node 5, N
         16     2.22645117188E+003                                                     F               0         Blade 1 X force, node 6, N
         17     7.72703674316E+002                                                     F               0         Blade 1 Y force, node 6, N
         18    -2.76046173096E+002                                                     F               0         Blade 1 Z force, node 6, N
         19     2.47495922852E+003                                                     F               0         Blade 1 X force, node 7, N
         20     9.98695495605E+002                                                     F               0         Blade 1 Y force, node 7, N
         21    -2.72785308838E+002                                                     F               0         Blade 1 Z force, node 7, N
         22     2.72348071289E+003                                                     F               0         Blade 1 X force, node 8, N
         23     1.22469165039E+003                                                     F               0         Blade 1 Y force, node 8, N
         24    -2.69526275635E+002                                                     F               0         Blade 1 Z force, node 8, N
         25     2.97200268555E+003                                                     F               0         Blade 1 X force, node 9, N
         26     1.45068762207E+003                                                     F               0         Blade 1 Y force, node 9, N
         27    -2.66267272949E+002                                                     F               0         Blade 1 Z force, node 9, N
         28     3.22052416992E+003                                                     F               0         Blade 1 X force, node 10, N
         29     1.67668371582E+003                                                     F               0         Blade 1 Y force, node 10, N
         30    -2.63008300781E+002                                                     F               0         Blade 1 Z force, node 10, N
         31     3.46904638672E+003                                                     F               0         Blade 1 X force, node 11, N
         32     1.90267980957E+003                                                     F               0         Blade 1 Y force, node 11, N
         33    -2.59749298096E+002                                                     F               0         Blade 1 Z force, node 11, N
         34     3.71759350586E+003                                                     F               0         Blade 1 X force, node 12, N
         35     2.12869116211E+003                                                     F               0         Blade 1 Y force, node 12, N
         36    -2.56491943359E+002                                                     F               0         Blade 1 Z force, node 12, N
         37     3.96611791992E+003                                                     F               0         Blade 1 X force, node 13, N
         38     2.35468945312E+003                                                     F               0         Blade 1 Y force, node 13, N
         39    -2.53232864380E+002                                                     F               0         Blade 1 Z force, node 13, N
         40     4.21461474609E+003                                                     F               0         Blade 1 X force, node 14, N
         41     2.58067089844E+003                                                     F               0         Blade 1 Y force, node 14, N
         42    -2.49972198486E+002                                                     F               0         Blade 1 Z force, node 14, N
         43     4.46316601562E+003                                                     F               0         Blade 1 X force, node 15, N
         44     2.80668579102E+003                                                     F               0         Blade 1 Y force, node 15, N
         45    -2.46714797974E+002                                                     F               0         Blade 1 Z force, node 15, N
         46     4.71165722656E+003                                                     F               0         Blade 1 X force, node 16, N
         47     3.03266235352E+003                                                     F               0         Blade 1 Y force, node 16, N
         48    -2.43454208374E+002                                                     F               0         Blade 1 Z force, node 16, N
         49     5.73999267578E+003                                                     F               0         Blade 1 X force, node 17, N
         50     3.76700097656E+003                                                     F               0         Blade 1 Y force, node 17, N
         51    -2.78924621582E+002                                                     F               0         Blade 1 Z force, node 17, N
         52     4.27939160156E+003                                                     F               0         Blade 1 X force, node 18, N
         53     2.79947363281E+003                                                     F               0         Blade 1 Y force, node 18, N
         54    -2.10137435913E+002                                                     F               0         Blade 1 Z force, node 18, N
         55     5.11902294922E+003                                                     F               0         Blade 1 X force, node 19, N
         56     3.31053735352E+003                                                     F               0         Blade 1 Y force, node 19, N
         57    -2.60681457520E+002                                                     F               0         Blade 1 Z force, node 19, N
         58     4.26021679688E+003                                                     F               0         Blade 1 X force, node 20, N
         59     2.72427905273E+003                                                     F               0         Blade 1 Y force, node 20, N
         60    -2.24471054077E+002                                                     F               0         Blade 1 Z force, node 20, N
         61     6.23583544922E+003                                                     F               0         Blade 1 X force, node 21, N
         62     3.96618725586E+003                                                     F               0         Blade 1 Y force, node 21, N
         63    -3.33793975830E+002                                                     F               0         Blade 1 Z force, node 21, N
         64     5.64607275391E+003                                                     F               0         Blade 1 X force, node 22, N
         65     3.62328466797E+003                                                     F               0         Blade 1 Y force, node 22, N
         66    -2.94372711182E+002                                                     F               0         Blade 1 Z force, node 22, N
         67     5.94200195312E+003                                                     F               0         Blade 1 X force, node 23, N
         68     3.84546875000E+003                                                     F               0         Blade 1 Y force, node 23, N
         69    -3.01932647705E+002                                                     F               0         Blade 1 Z force, node 23, N
         70     6.35595800781E+003                                                     F               0         Blade 1 X force, node 24, N
         71     4.13350292969E+003                                                     F               0         Blade 1 Y force, node 24, N
         72    -3.18057647705E+002                                                     F               0         Blade 1 Z force, node 24, N
         73     6.69918652344E+003                                                     F               0         Blade 1 X force, node 25, N
         74     4.33334033203E+003                                                     F               0         Blade 1 Y force, node 25, N
         75    -3.40932617188E+002                                                     F               0         Blade 1 Z force, node 25, N
         76     7.08753710938E+003                                                     F               0         Blade 1 X force, node 26, N
         77     4.55234326172E+003                                                     F               0         Blade 1 Y force, node 26, N
         78    -3.68547332764E+002                                                     F               0         Blade 1 Z force, node 26, N
         79     8.69624121094E+003                                                     F               0         Blade 1 X force, node 27, N
         80     5.54361083984E+003                                                     F               0         Blade 1 Y force, node 27, N
         81    -4.62440765381E+002                                                     F               0         Blade 1 Z force, node 27, N
         82     6.41917480469E+003                                                     F               0         Blade 1 X force, node 28, N
         83     4.03098486328E+003                                                     F               0         Blade 1 Y force, node 28, N
         84    -3.56240295410E+002                                                     F               0         Blade 1 Z force, node 28, N
         85     7.73857666016E+003                                                     F               0         Blade 1 X force, node 29, N
         86     4.78130712891E+003                                                     F               0         Blade 1 Y force, node 29, N
         87    -4.48530822754E+002                                                     F               0         Blade 1 Z force, node 29, N
         88     6.49156396484E+003                                                     F               0         Blade 1 X force, node 30, N
         89     3.94674658203E+003                                                     F               0         Blade 1 Y force, node 30, N
         90    -3.91879394531E+002                                                     F               0         Blade 1 Z force, node 30, N
         91     9.21879785156E+003                                                     F               0         Blade 1 X force, node 31, N
         92     5.49720654297E+003                                                     F               0         Blade 1 Y force, node 31, N
         93    -5.82761352539E+002                                                     F               0         Blade 1 Z force, node 31, N
         94     7.94547558594E+003                                                     F               0         Blade 1 X force, node 32, N
         95     4.64143945312E+003                                                     F               0         Blade 1 Y force, node 32, N
         96    -5.25792297363E+002                                                     F               0         Blade 1 Z force, node 32, N
         97     7.99789550781E+003                                                     F               0         Blade 1 X force, node 33, N
         98     4.58174804688E+003                                                     F               0         Blade 1 Y force, node 33, N
         99    -5.51280883789E+002                                                     F               0         Blade 1 Z force, node 33, N
        100     8.05013769531E+003                                                     F               0         Blade 1 X force, node 34, N
        101     4.52093261719E+003                                                     F               0         Blade 1 Y force, node 34, N
        102    -5.77006408691E+002                                                     F               0         Blade 1 Z force, node 34, N
        103     8.09345263672E+003                                                     F               0         Blade 1 X force, node 35, N
        104     4.45092578125E+003                                                     F               0         Blade 1 Y force, node 35, N
        105    -6.03110717773E+002                                                     F               0         Blade 1 Z force, node 35, N
        106     8.13238281250E+003                                                     F               0         Blade 1 X force, node 36, N
        107     4.37743505859E+003                                                     F               0         Blade 1 Y force, node 36, N
        108    -6.29149658203E+002                                                     F               0         Blade 1 Z force, node 36, N
        109     9.54831738281E+003                                                     F               0         Blade 1 X force, node 37, N
        110     5.02224755859E+003                                                     F               0         Blade 1 Y force, node 37, N
        111    -7.67302185059E+002                                                     F               0         Blade 1 Z force, node 37, N
        112     6.80942773438E+003                                                     F               0         Blade 1 X force, node 38, N
        113     3.49993896484E+003                                                     F               0         Blade 1 Y force, node 38, N
        114    -5.67124938965E+002                                                     F               0         Blade 1 Z force, node 38, N
        115     8.18987988281E+003                                                     F               0         Blade 1 X force, node 39, N
        116     4.12636083984E+003                                                     F               0         Blade 1 Y force, node 39, N
        117    -7.02359375000E+002                                                     F               0         Blade 1 Z force, node 39, N
        118     6.85504443359E+003                                                     F               0         Blade 1 X force, node 40, N
        119     3.38402758789E+003                                                     F               0         Blade 1 Y force, node 40, N
        120    -6.04901672363E+002                                                     F               0         Blade 1 Z force, node 40, N
        121     9.50398730469E+003                                                     F               0         Blade 1 X force, node 41, N
        122     4.58166357422E+003                                                     F               0         Blade 1 Y force, node 41, N
        123    -8.65475524902E+002                                                     F               0         Blade 1 Z force, node 41, N
        124     8.10100439453E+003                                                     F               0         Blade 1 X force, node 42, N
        125     3.81528027344E+003                                                     F               0         Blade 1 Y force, node 42, N
        126    -7.59665832520E+002                                                     F               0         Blade 1 Z force, node 42, N
        127     8.03098193359E+003                                                     F               0         Blade 1 X force, node 43, N
        128     3.69731835938E+003                                                     F               0         Blade 1 Y force, node 43, N
        129    -7.73819885254E+002                                                     F               0         Blade 1 Z force, node 43, N
        130     7.99351806641E+003                                                     F               0         Blade 1 X force, node 44, N
        131     3.59586865234E+003                                                     F               0         Blade 1 Y force, node 44, N
        132    -7.90739685059E+002                                                     F               0         Blade 1 Z force, node 44, N
        133     7.79337646484E+003                                                     F               0         Blade 1 X force, node 45, N
        134     3.42995654297E+003                                                     F               0         Blade 1 Y force, node 45, N