
Linearized model: Predictions were generated on 12-Jan-2024 at 09:28:28 using OpenFAST, compiled as a 64-bit application using single precision at commit v3.5.1
 linked with  NWTC Subroutine Library; ElastoDyn; InflowWind; AeroDyn; ServoDyn; HydroDyn; MAP++ (<1.20.10>, <Oct-20-2023>)

Description from the FAST input file: CCT-9 Campign 4 model. Input files to be run with OpenFAST 3.5.0. GitHub branch from Lu Wang (https://github.com/luwang00/openfast/tree/dev) compiled on March 7, 2023.

Simulation information:
   Simulation time:                   508.4000 s
   Rotor Speed:                         0.8781 rad/s
   Azimuth:                             4.9430 rad
   Wind Speed:                         10.0000 m/s
   Number of continuous states:         0
   Number of discrete states:           0
   Number of constraint states:         0
   Number of inputs:                  303
   Number of outputs:                   1
   Jacobians included in this file?    No

Order of inputs:
     Column   Operating Point                     Rotating Frame? Derivative Order Description
   ---------- ---------------                     --------------- ---------------- -----------
          1   -1.080E+01                                 F               0         X-component position of node 1 (hub), m
          2    0.000E+00                                 F               0         Y-component position of node 1 (hub), m
          3    1.497E+02                                 F               0         Z-component position of node 1 (hub), m
          4    1.686E+01                                 F               0         X-component position of node 2 (blade 1, node 1), m
          5   -2.252E+00                                 F               0         Y-component position of node 2 (blade 1, node 1), m
          6    1.511E+02                                 F               0         Z-component position of node 2 (blade 1, node 1), m
          7    1.692E+01                                 F               0         X-component position of node 3 (blade 1, node 2), m
          8   -9.686E-01                                 F               0         Y-component position of node 3 (blade 1, node 2), m
          9    1.515E+02                                 F               0         Z-component position of node 3 (blade 1, node 2), m
         10    1.780E+01                                 F               0         X-component position of node 4 (blade 1, node 3), m
         11    1.649E+01                                 F               0         Y-component position of node 4 (blade 1, node 3), m
         12    1.564E+02                                 F               0         Z-component position of node 4 (blade 1, node 3), m
         13    1.798E+01                                 F               0         X-component position of node 5 (blade 1, node 4), m
         14    2.021E+01                                 F               0         Y-component position of node 5 (blade 1, node 4), m
         15    1.574E+02                                 F               0         Z-component position of node 5 (blade 1, node 4), m
         16    1.817E+01                                 F               0         X-component position of node 6 (blade 1, node 5), m
         17    2.393E+01                                 F               0         Y-component position of node 6 (blade 1, node 5), m
         18    1.585E+02                                 F               0         Z-component position of node 6 (blade 1, node 5), m
         19    1.836E+01                                 F               0         X-component position of node 7 (blade 1, node 6), m
         20    2.764E+01                                 F               0         Y-component position of node 7 (blade 1, node 6), m
         21    1.595E+02                                 F               0         Z-component position of node 7 (blade 1, node 6), m
         22    1.854E+01                                 F               0         X-component position of node 8 (blade 1, node 7), m
         23    3.136E+01                                 F               0         Y-component position of node 8 (blade 1, node 7), m
         24    1.606E+02                                 F               0         Z-component position of node 8 (blade 1, node 7), m
         25    1.873E+01                                 F               0         X-component position of node 9 (blade 1, node 8), m
         26    3.508E+01                                 F               0         Y-component position of node 9 (blade 1, node 8), m
         27    1.616E+02                                 F               0         Z-component position of node 9 (blade 1, node 8), m
         28    1.891E+01                                 F               0         X-component position of node 10 (blade 1, node 9), m
         29    3.880E+01                                 F               0         Y-component position of node 10 (blade 1, node 9), m
         30    1.627E+02                                 F               0         Z-component position of node 10 (blade 1, node 9), m
         31    1.910E+01                                 F               0         X-component position of node 11 (blade 1, node 10), m
         32    4.252E+01                                 F               0         Y-component position of node 11 (blade 1, node 10), m
         33    1.637E+02                                 F               0         Z-component position of node 11 (blade 1, node 10), m
         34    1.929E+01                                 F               0         X-component position of node 12 (blade 1, node 11), m
         35    4.624E+01                                 F               0         Y-component position of node 12 (blade 1, node 11), m
         36    1.648E+02                                 F               0         Z-component position of node 12 (blade 1, node 11), m
         37    1.947E+01                                 F               0         X-component position of node 13 (blade 1, node 12), m
         38    4.996E+01                                 F               0         Y-component position of node 13 (blade 1, node 12), m
         39    1.658E+02                                 F               0         Z-component position of node 13 (blade 1, node 12), m
         40    1.966E+01                                 F               0         X-component position of node 14 (blade 1, node 13), m
         41    5.368E+01                                 F               0         Y-component position of node 14 (blade 1, node 13), m
         42    1.668E+02                                 F               0         Z-component position of node 14 (blade 1, node 13), m
         43    1.984E+01                                 F               0         X-component position of node 15 (blade 1, node 14), m
         44    5.740E+01                                 F               0         Y-component position of node 15 (blade 1, node 14), m
         45    1.679E+02                                 F               0         Z-component position of node 15 (blade 1, node 14), m
         46    2.003E+01                                 F               0         X-component position of node 16 (blade 1, node 15), m
         47    6.112E+01                                 F               0         Y-component position of node 16 (blade 1, node 15), m
         48    1.689E+02                                 F               0         Z-component position of node 16 (blade 1, node 15), m
         49    2.022E+01                                 F               0         X-component position of node 17 (blade 1, node 16), m
         50    6.484E+01                                 F               0         Y-component position of node 17 (blade 1, node 16), m
         51    1.700E+02                                 F               0         Z-component position of node 17 (blade 1, node 16), m
         52    2.040E+01                                 F               0         X-component position of node 18 (blade 1, node 17), m
         53    6.856E+01                                 F               0         Y-component position of node 18 (blade 1, node 17), m
         54    1.710E+02                                 F               0         Z-component position of node 18 (blade 1, node 17), m
         55    2.059E+01                                 F               0         X-component position of node 19 (blade 1, node 18), m
         56    7.227E+01                                 F               0         Y-component position of node 19 (blade 1, node 18), m
         57    1.721E+02                                 F               0         Z-component position of node 19 (blade 1, node 18), m
         58    2.077E+01                                 F               0         X-component position of node 20 (blade 1, node 19), m
         59    7.599E+01                                 F               0         Y-component position of node 20 (blade 1, node 19), m
         60    1.731E+02                                 F               0         Z-component position of node 20 (blade 1, node 19), m
         61    2.096E+01                                 F               0         X-component position of node 21 (blade 1, node 20), m
         62    7.971E+01                                 F               0         Y-component position of node 21 (blade 1, node 20), m
         63    1.742E+02                                 F               0         Z-component position of node 21 (blade 1, node 20), m
         64    2.115E+01                                 F               0         X-component position of node 22 (blade 1, node 21), m
         65    8.343E+01                                 F               0         Y-component position of node 22 (blade 1, node 21), m
         66    1.752E+02                                 F               0         Z-component position of node 22 (blade 1, node 21), m
         67    2.133E+01                                 F               0         X-component position of node 23 (blade 1, node 22), m
         68    8.715E+01                                 F               0         Y-component position of node 23 (blade 1, node 22), m
         69    1.762E+02                                 F               0         Z-component position of node 23 (blade 1, node 22), m
         70    2.152E+01                                 F               0         X-component position of node 24 (blade 1, node 23), m
         71    9.087E+01                                 F               0         Y-component position of node 24 (blade 1, node 23), m
         72    1.773E+02                                 F               0         Z-component position of node 24 (blade 1, node 23), m
         73    2.171E+01                                 F               0         X-component position of node 25 (blade 1, node 24), m
         74    9.459E+01                                 F               0         Y-component position of node 25 (blade 1, node 24), m
         75    1.783E+02                                 F               0         Z-component position of node 25 (blade 1, node 24), m
         76    2.189E+01                                 F               0         X-component position of node 26 (blade 1, node 25), m
         77    9.831E+01                                 F               0         Y-component position of node 26 (blade 1, node 25), m
         78    1.794E+02                                 F               0         Z-component position of node 26 (blade 1, node 25), m
         79    2.208E+01                                 F               0         X-component position of node 27 (blade 1, node 26), m
         80    1.020E+02                                 F               0         Y-component position of node 27 (blade 1, node 26), m
         81    1.804E+02                                 F               0         Z-component position of node 27 (blade 1, node 26), m
         82    2.226E+01                                 F               0         X-component position of node 28 (blade 1, node 27), m
         83    1.057E+02                                 F               0         Y-component position of node 28 (blade 1, node 27), m
         84    1.815E+02                                 F               0         Z-component position of node 28 (blade 1, node 27), m
         85    2.242E+01                                 F               0         X-component position of node 29 (blade 1, node 28), m
         86    1.089E+02                                 F               0         Y-component position of node 29 (blade 1, node 28), m
         87    1.824E+02                                 F               0         Z-component position of node 29 (blade 1, node 28), m
         88    1.754E+01                                 F               0         X-component position of node 30 (blade 2, node 1), m
         89   -1.156E+01                                 F               0         Y-component position of node 30 (blade 2, node 1), m
         90    1.534E+02                                 F               0         Z-component position of node 30 (blade 2, node 1), m
         91    1.776E+01                                 F               0         X-component position of node 31 (blade 2, node 2), m
         92   -1.252E+01                                 F               0         Y-component position of node 31 (blade 2, node 2), m
         93    1.543E+02                                 F               0         Z-component position of node 31 (blade 2, node 2), m
         94    2.086E+01                                 F               0         X-component position of node 32 (blade 2, node 3), m
         95   -2.555E+01                                 F               0         Y-component position of node 32 (blade 2, node 3), m
         96    1.665E+02                                 F               0         Z-component position of node 32 (blade 2, node 3), m
         97    2.152E+01                                 F               0         X-component position of node 33 (blade 2, node 4), m
         98   -2.833E+01                                 F               0         Y-component position of node 33 (blade 2, node 4), m
         99    1.691E+02                                 F               0         Z-component position of node 33 (blade 2, node 4), m
        100    2.218E+01                                 F               0         X-component position of node 34 (blade 2, node 5), m
        101   -3.111E+01                                 F               0         Y-component position of node 34 (blade 2, node 5), m
        102    1.717E+02                                 F               0         Z-component position of node 34 (blade 2, node 5), m
        103    2.284E+01                                 F               0         X-component position of node 35 (blade 2, node 6), m
        104   -3.388E+01                                 F               0         Y-component position of node 35 (blade 2, node 6), m
        105    1.743E+02                                 F               0         Z-component position of node 35 (blade 2, node 6), m
        106    2.350E+01                                 F               0         X-component position of node 36 (blade 2, node 7), m
        107   -3.666E+01                                 F               0         Y-component position of node 36 (blade 2, node 7), m
        108    1.770E+02                                 F               0         Z-component position of node 36 (blade 2, node 7), m
        109    2.416E+01                                 F               0         X-component position of node 37 (blade 2, node 8), m
        110   -3.944E+01                                 F               0         Y-component position of node 37 (blade 2, node 8), m
        111    1.796E+02                                 F               0         Z-component position of node 37 (blade 2, node 8), m
        112    2.482E+01                                 F               0         X-component position of node 38 (blade 2, node 9), m
        113   -4.222E+01                                 F               0         Y-component position of node 38 (blade 2, node 9), m
        114    1.822E+02                                 F               0         Z-component position of node 38 (blade 2, node 9), m
        115    2.548E+01                                 F               0         X-component position of node 39 (blade 2, node 10), m
        116   -4.499E+01                                 F               0         Y-component position of node 39 (blade 2, node 10), m
        117    1.848E+02                                 F               0         Z-component position of node 39 (blade 2, node 10), m
        118    2.614E+01                                 F               0         X-component position of node 40 (blade 2, node 11), m
        119   -4.777E+01                                 F               0         Y-component position of node 40 (blade 2, node 11), m
        120    1.874E+02                                 F               0         Z-component position of node 40 (blade 2, node 11), m
        121    2.680E+01                                 F               0         X-component position of node 41 (blade 2, node 12), m
        122   -5.055E+01                                 F               0         Y-component position of node 41 (blade 2, node 12), m
        123    1.900E+02                                 F               0         Z-component position of node 41 (blade 2, node 12), m
        124    2.746E+01                                 F               0         X-component position of node 42 (blade 2, node 13), m
        125   -5.332E+01                                 F               0         Y-component position of node 42 (blade 2, node 13), m
        126    1.926E+02                                 F               0         Z-component position of node 42 (blade 2, node 13), m
        127    2.812E+01                                 F               0         X-component position of node 43 (blade 2, node 14), m
        128   -5.610E+01                                 F               0         Y-component position of node 43 (blade 2, node 14), m
        129    1.952E+02                                 F               0         Z-component position of node 43 (blade 2, node 14), m
        130    2.878E+01                                 F               0         X-component position of node 44 (blade 2, node 15), m
        131   -5.888E+01                                 F               0         Y-component position of node 44 (blade 2, node 15), m
        132    1.978E+02                                 F               0         Z-component position of node 44 (blade 2, node 15), m
        133    2.943E+01                                 F               0         X-component position of node 45 (blade 2, node 16), m
        134   -6.166E+01                                 F               0         Y-component position of node 45 (blade 2, node 16), m
        135    2.004E+02                                 F               0         Z-component position of node 45 (blade 2, node 16), m
        136    3.009E+01                                 F               0         X-component position of node 46 (blade 2, node 17), m
        137   -6.443E+01                                 F               0         Y-component position of node 46 (blade 2, node 17), m
        138    2.031E+02                                 F               0         Z-component position of node 46 (blade 2, node 17), m
        139    3.075E+01                                 F               0         X-component position of node 47 (blade 2, node 18), m
        140   -6.721E+01                                 F               0         Y-component position of node 47 (blade 2, node 18), m
        141    2.057E+02                                 F               0         Z-component position of node 47 (blade 2, node 18), m
        142    3.141E+01                                 F               0         X-component position of node 48 (blade 2, node 19), m
        143   -6.999E+01                                 F               0         Y-component position of node 48 (blade 2, node 19), m
        144    2.083E+02                                 F               0         Z-component position of node 48 (blade 2, node 19), m
        145    3.207E+01                                 F               0         X-component position of node 49 (blade 2, node 20), m
        146   -7.277E+01                                 F               0         Y-component position of node 49 (blade 2, node 20), m
        147    2.109E+02                                 F               0         Z-component position of node 49 (blade 2, node 20), m
        148    3.273E+01                                 F               0         X-component position of node 50 (blade 2, node 21), m
        149   -7.554E+01                                 F               0         Y-component position of node 50 (blade 2, node 21), m
        150    2.135E+02                                 F               0         Z-component position of node 50 (blade 2, node 21), m
        151    3.339E+01                                 F               0         X-component position of node 51 (blade 2, node 22), m
        152   -7.832E+01                                 F               0         Y-component position of node 51 (blade 2, node 22), m
        153    2.161E+02                                 F               0         Z-component position of node 51 (blade 2, node 22), m
        154    3.405E+01                                 F               0         X-component position of node 52 (blade 2, node 23), m
        155   -8.110E+01                                 F               0         Y-component position of node 52 (blade 2, node 23), m
        156    2.187E+02                                 F               0         Z-component position of node 52 (blade 2, node 23), m
        157    3.471E+01                                 F               0         X-component position of node 53 (blade 2, node 24), m
        158   -8.388E+01                                 F               0         Y-component position of node 53 (blade 2, node 24), m
        159    2.213E+02                                 F               0         Z-component position of node 53 (blade 2, node 24), m
        160    3.537E+01                                 F               0         X-component position of node 54 (blade 2, node 25), m
        161   -8.665E+01                                 F               0         Y-component position of node 54 (blade 2, node 25), m
        162    2.239E+02                                 F               0         Z-component position of node 54 (blade 2, node 25), m
        163    3.603E+01                                 F               0         X-component position of node 55 (blade 2, node 26), m
        164   -8.943E+01                                 F               0         Y-component position of node 55 (blade 2, node 26), m
        165    2.265E+02                                 F               0         Z-component position of node 55 (blade 2, node 26), m
        166    3.669E+01                                 F               0         X-component position of node 56 (blade 2, node 27), m
        167   -9.221E+01                                 F               0         Y-component position of node 56 (blade 2, node 27), m
        168    2.292E+02                                 F               0         Z-component position of node 56 (blade 2, node 27), m
        169    3.725E+01                                 F               0         X-component position of node 57 (blade 2, node 28), m
        170   -9.456E+01                                 F               0         Y-component position of node 57 (blade 2, node 28), m
        171    2.314E+02                                 F               0         Z-component position of node 57 (blade 2, node 28), m
        172    1.538E+01                                 F               0         X-component position of node 58 (blade 3, node 1), m
        173   -8.929E+00                                 F               0         Y-component position of node 58 (blade 3, node 1), m
        174    1.444E+02                                 F               0         Z-component position of node 58 (blade 3, node 1), m
        175    1.509E+01                                 F               0         X-component position of node 59 (blade 3, node 2), m
        176   -9.254E+00                                 F               0         Y-component position of node 59 (blade 3, node 2), m
        177    1.431E+02                                 F               0         Z-component position of node 59 (blade 3, node 2), m
        178    1.112E+01                                 F               0         X-component position of node 60 (blade 3, node 3), m
        179   -1.367E+01                                 F               0         Y-component position of node 60 (blade 3, node 3), m
        180    1.260E+02                                 F               0         Z-component position of node 60 (blade 3, node 3), m
        181    1.027E+01                                 F               0         X-component position of node 61 (blade 3, node 4), m
        182   -1.462E+01                                 F               0         Y-component position of node 61 (blade 3, node 4), m
        183    1.223E+02                                 F               0         Z-component position of node 61 (blade 3, node 4), m
        184    9.428E+00                                 F               0         X-component position of node 62 (blade 3, node 5), m
        185   -1.556E+01                                 F               0         Y-component position of node 62 (blade 3, node 5), m
        186    1.187E+02                                 F               0         Z-component position of node 62 (blade 3, node 5), m
        187    8.583E+00                                 F               0         X-component position of node 63 (blade 3, node 6), m
        188   -1.650E+01                                 F               0         Y-component position of node 63 (blade 3, node 6), m
        189    1.150E+02                                 F               0         Z-component position of node 63 (blade 3, node 6), m
        190    7.737E+00                                 F               0         X-component position of node 64 (blade 3, node 7), m
        191   -1.744E+01                                 F               0         Y-component position of node 64 (blade 3, node 7), m
        192    1.114E+02                                 F               0         Z-component position of node 64 (blade 3, node 7), m
        193    6.891E+00                                 F               0         X-component position of node 65 (blade 3, node 8), m
        194   -1.838E+01                                 F               0         Y-component position of node 65 (blade 3, node 8), m
        195    1.077E+02                                 F               0         Z-component position of node 65 (blade 3, node 8), m
        196    6.046E+00                                 F               0         X-component position of node 66 (blade 3, node 9), m
        197   -1.933E+01                                 F               0         Y-component position of node 66 (blade 3, node 9), m
        198    1.041E+02                                 F               0         Z-component position of node 66 (blade 3, node 9), m
        199    5.200E+00                                 F               0         X-component position of node 67 (blade 3, node 10), m
        200   -2.027E+01                                 F               0         Y-component position of node 67 (blade 3, node 10), m
        201    1.004E+02                                 F               0         Z-component position of node 67 (blade 3, node 10), m
        202    4.354E+00                                 F               0         X-component position of node 68 (blade 3, node 11), m
        203   -2.121E+01                                 F               0         Y-component position of node 68 (blade 3, node 11), m
        204    9.675E+01                                 F               0         Z-component position of node 68 (blade 3, node 11), m
        205    3.508E+00                                 F               0         X-component position of node 69 (blade 3, node 12), m
        206   -2.215E+01                                 F               0         Y-component position of node 69 (blade 3, node 12), m
        207    9.309E+01                                 F               0         Z-component position of node 69 (blade 3, node 12), m
        208    2.663E+00                                 F               0         X-component position of node 70 (blade 3, node 13), m
        209   -2.309E+01                                 F               0         Y-component position of node 70 (blade 3, node 13), m
        210    8.944E+01                                 F               0         Z-component position of node 70 (blade 3, node 13), m
        211    1.817E+00                                 F               0         X-component position of node 71 (blade 3, node 14), m