
Linearized model: Predictions were generated on 12-Jan-2024 at 09:28:28 using OpenFAST, compiled as a 64-bit application using single precision at commit v3.5.1
 linked with  NWTC Subroutine Library; ElastoDyn; InflowWind; AeroDyn; ServoDyn; HydroDyn; MAP++ (<1.20.10>, <Oct-20-2023>)

Description from the FAST input file: CCT-9 Campign 4 model. Input files to be run with OpenFAST 3.5.0. GitHub branch from Lu Wang (https://github.com/luwang00/openfast/tree/dev) compiled on March 7, 2023.

Simulation information:
   Simulation time:                   502.4750 s
   Rotor Speed:                         0.8769 rad/s
   Azimuth:                             6.0269 rad
   Wind Speed:                         10.0000 m/s
   Number of continuous states:        22
   Number of discrete states:           0
   Number of constraint states:         0
   Number of inputs:                 3988
   Number of outputs:                  58
   Jacobians included in this file?    No

Order of continuous states:
   Row/Column Operating Point                     Rotating Frame? Derivative Order Description
   ---------- ---------------                     --------------- ---------------- -----------
          1    8.844E+00                                 F               2         ED Platform horizontal surge translation DOF (internal DOF index = DOF_Sg), m
          2   -3.666E-01                                 F               2         ED Platform horizontal sway translation DOF (internal DOF index = DOF_Sw), m
          3   -1.793E-01                                 F               2         ED Platform vertical heave translation DOF (internal DOF index = DOF_Hv), m
          4    4.794E-02                                 F               2         ED Platform roll tilt rotation DOF (internal DOF index = DOF_R), rad
          5    1.189E-01                                 F               2         ED Platform pitch tilt rotation DOF (internal DOF index = DOF_P), rad
          6    7.004E-03                                 F               2         ED Platform yaw rotation DOF (internal DOF index = DOF_Y), rad
          7    7.539E-01                                 F               2         ED 1st tower fore-aft bending mode DOF (internal DOF index = DOF_TFA1), m
          8    1.915E-01                                 F               2         ED 1st tower side-to-side bending mode DOF (internal DOF index = DOF_TSS1), m
          9    1.525E-03                                 F               2         ED 2nd tower fore-aft bending mode DOF (internal DOF index = DOF_TFA2), m
         10    8.581E-05                                 F               2         ED 2nd tower side-to-side bending mode DOF (internal DOF index = DOF_TSS2), m
         11    4.456E+00                                 F               2         ED Variable speed generator DOF (internal DOF index = DOF_GeAz), rad
         12   -4.322E-03                                 F               2         ED First time derivative of Platform horizontal surge translation DOF (internal DOF index = DOF_Sg), m/s
         13    2.110E-03                                 F               2         ED First time derivative of Platform horizontal sway translation DOF (internal DOF index = DOF_Sw), m/s
         14    8.654E-04                                 F               2         ED First time derivative of Platform vertical heave translation DOF (internal DOF index = DOF_Hv), m/s
         15    2.162E-04                                 F               2         ED First time derivative of Platform roll tilt rotation DOF (internal DOF index = DOF_R), rad/s
         16   -3.993E-05                                 F               2         ED First time derivative of Platform pitch tilt rotation DOF (internal DOF index = DOF_P), rad/s
         17    1.505E-05                                 F               2         ED First time derivative of Platform yaw rotation DOF (internal DOF index = DOF_Y), rad/s
         18    3.310E-03                                 F               2         ED First time derivative of 1st tower fore-aft bending mode DOF (internal DOF index = DOF_TFA1), m/s
         19   -3.917E-04                                 F               2         ED First time derivative of 1st tower side-to-side bending mode DOF (internal DOF index = DOF_TSS1), m/s
         20   -3.001E-06                                 F               2         ED First time derivative of 2nd tower fore-aft bending mode DOF (internal DOF index = DOF_TFA2), m/s
         21    4.780E-07                                 F               2         ED First time derivative of 2nd tower side-to-side bending mode DOF (internal DOF index = DOF_TSS2), m/s
         22    8.769E-01                                 F               2         ED First time derivative of Variable speed generator DOF (internal DOF index = DOF_GeAz), rad/s

Order of continuous state derivatives:
   Row/Column Operating Point                     Rotating Frame? Derivative Order Description
   ---------- ---------------                     --------------- ---------------- -----------
          1   -4.322E-03                                 F               2         First time derivative of ED Platform horizontal surge translation DOF (internal DOF index = DOF_Sg), m/s
          2    2.110E-03                                 F               2         First time derivative of ED Platform horizontal sway translation DOF (internal DOF index = DOF_Sw), m/s
          3    8.654E-04                                 F               2         First time derivative of ED Platform vertical heave translation DOF (internal DOF index = DOF_Hv), m/s
          4    2.162E-04                                 F               2         First time derivative of ED Platform roll tilt rotation DOF (internal DOF index = DOF_R), rad/s
          5   -3.993E-05                                 F               2         First time derivative of ED Platform pitch tilt rotation DOF (internal DOF index = DOF_P), rad/s
          6    1.505E-05                                 F               2         First time derivative of ED Platform yaw rotation DOF (internal DOF index = DOF_Y), rad/s
          7    3.310E-03                                 F               2         First time derivative of ED 1st tower fore-aft bending mode DOF (internal DOF index = DOF_TFA1), m/s
          8   -3.917E-04                                 F               2         First time derivative of ED 1st tower side-to-side bending mode DOF (internal DOF index = DOF_TSS1), m/s
          9   -3.001E-06                                 F               2         First time derivative of ED 2nd tower fore-aft bending mode DOF (internal DOF index = DOF_TFA2), m/s
         10    4.780E-07                                 F               2         First time derivative of ED 2nd tower side-to-side bending mode DOF (internal DOF index = DOF_TSS2), m/s
         11    8.769E-01                                 F               2         First time derivative of ED Variable speed generator DOF (internal DOF index = DOF_GeAz), rad/s
         12   -3.634E-04                                 F               2         First time derivative of ED First time derivative of Platform horizontal surge translation DOF (internal DOF index = DOF_Sg), m/s/s
         13    8.786E-04                                 F               2         First time derivative of ED First time derivative of Platform horizontal sway translation DOF (internal DOF index = DOF_Sw), m/s/s
         14    1.495E-03                                 F               2         First time derivative of ED First time derivative of Platform vertical heave translation DOF (internal DOF index = DOF_Hv), m/s/s
         15   -1.917E-04                                 F               2         First time derivative of ED First time derivative of Platform roll tilt rotation DOF (internal DOF index = DOF_R), rad/s/s
         16   -8.733E-06                                 F               2         First time derivative of ED First time derivative of Platform pitch tilt rotation DOF (internal DOF index = DOF_P), rad/s/s
         17    3.548E-05                                 F               2         First time derivative of ED First time derivative of Platform yaw rotation DOF (internal DOF index = DOF_Y), rad/s/s
         18    2.362E-03                                 F               2         First time derivative of ED First time derivative of 1st tower fore-aft bending mode DOF (internal DOF index = DOF_TFA1), m/s/s
         19    8.813E-03                                 F               2         First time derivative of ED First time derivative of 1st tower side-to-side bending mode DOF (internal DOF index = DOF_TSS1), m/s/s
         20    1.157E-05                                 F               2         First time derivative of ED First time derivative of 2nd tower fore-aft bending mode DOF (internal DOF index = DOF_TFA2), m/s/s
         21   -4.010E-06                                 F               2         First time derivative of ED First time derivative of 2nd tower side-to-side bending mode DOF (internal DOF index = DOF_TSS2), m/s/s
         22   -3.086E-05                                 F               2         First time derivative of ED First time derivative of Variable speed generator DOF (internal DOF index = DOF_GeAz), rad/s/s

Order of inputs:
     Column   Operating Point                     Rotating Frame? Derivative Order Description
   ---------- ---------------                     --------------- ---------------- -----------
          1   -1.080E+01                                 F               0         IfW X-component position of node 1 (hub), m
          2    0.000E+00                                 F               0         IfW Y-component position of node 1 (hub), m
          3    1.497E+02                                 F               0         IfW Z-component position of node 1 (hub), m
          4    1.786E+01                                 F               0         IfW X-component position of node 2 (blade 1, node 1), m
          5   -6.592E+00                                 F               0         IfW Y-component position of node 2 (blade 1, node 1), m
          6    1.549E+02                                 F               0         IfW Z-component position of node 2 (blade 1, node 1), m
          7    1.815E+01                                 F               0         IfW X-component position of node 3 (blade 1, node 2), m
          8   -6.316E+00                                 F               0         IfW Y-component position of node 3 (blade 1, node 2), m
          9    1.562E+02                                 F               0         IfW Z-component position of node 3 (blade 1, node 2), m
         10    2.217E+01                                 F               0         IfW X-component position of node 4 (blade 1, node 3), m
         11   -2.565E+00                                 F               0         IfW Y-component position of node 4 (blade 1, node 3), m
         12    1.735E+02                                 F               0         IfW Z-component position of node 4 (blade 1, node 3), m
         13    2.303E+01                                 F               0         IfW X-component position of node 5 (blade 1, node 4), m
         14   -1.765E+00                                 F               0         IfW Y-component position of node 5 (blade 1, node 4), m
         15    1.771E+02                                 F               0         IfW Z-component position of node 5 (blade 1, node 4), m
         16    2.388E+01                                 F               0         IfW X-component position of node 6 (blade 1, node 5), m
         17   -9.660E-01                                 F               0         IfW Y-component position of node 6 (blade 1, node 5), m
         18    1.808E+02                                 F               0         IfW Z-component position of node 6 (blade 1, node 5), m
         19    2.474E+01                                 F               0         IfW X-component position of node 7 (blade 1, node 6), m
         20   -1.668E-01                                 F               0         IfW Y-component position of node 7 (blade 1, node 6), m
         21    1.845E+02                                 F               0         IfW Z-component position of node 7 (blade 1, node 6), m
         22    2.559E+01                                 F               0         IfW X-component position of node 8 (blade 1, node 7), m
         23    6.324E-01                                 F               0         IfW Y-component position of node 8 (blade 1, node 7), m
         24    1.882E+02                                 F               0         IfW Z-component position of node 8 (blade 1, node 7), m
         25    2.645E+01                                 F               0         IfW X-component position of node 9 (blade 1, node 8), m
         26    1.432E+00                                 F               0         IfW Y-component position of node 9 (blade 1, node 8), m
         27    1.919E+02                                 F               0         IfW Z-component position of node 9 (blade 1, node 8), m
         28    2.731E+01                                 F               0         IfW X-component position of node 10 (blade 1, node 9), m
         29    2.231E+00                                 F               0         IfW Y-component position of node 10 (blade 1, node 9), m
         30    1.956E+02                                 F               0         IfW Z-component position of node 10 (blade 1, node 9), m
         31    2.816E+01                                 F               0         IfW X-component position of node 11 (blade 1, node 10), m
         32    3.030E+00                                 F               0         IfW Y-component position of node 11 (blade 1, node 10), m
         33    1.993E+02                                 F               0         IfW Z-component position of node 11 (blade 1, node 10), m
         34    2.902E+01                                 F               0         IfW X-component position of node 12 (blade 1, node 11), m
         35    3.829E+00                                 F               0         IfW Y-component position of node 12 (blade 1, node 11), m
         36    2.029E+02                                 F               0         IfW Z-component position of node 12 (blade 1, node 11), m
         37    2.988E+01                                 F               0         IfW X-component position of node 13 (blade 1, node 12), m
         38    4.629E+00                                 F               0         IfW Y-component position of node 13 (blade 1, node 12), m
         39    2.066E+02                                 F               0         IfW Z-component position of node 13 (blade 1, node 12), m
         40    3.073E+01                                 F               0         IfW X-component position of node 14 (blade 1, node 13), m
         41    5.428E+00                                 F               0         IfW Y-component position of node 14 (blade 1, node 13), m
         42    2.103E+02                                 F               0         IfW Z-component position of node 14 (blade 1, node 13), m
         43    3.159E+01                                 F               0         IfW X-component position of node 15 (blade 1, node 14), m
         44    6.227E+00                                 F               0         IfW Y-component position of node 15 (blade 1, node 14), m
         45    2.140E+02                                 F               0         IfW Z-component position of node 15 (blade 1, node 14), m
         46    3.244E+01                                 F               0         IfW X-component position of node 16 (blade 1, node 15), m
         47    7.027E+00                                 F               0         IfW Y-component position of node 16 (blade 1, node 15), m
         48    2.177E+02                                 F               0         IfW Z-component position of node 16 (blade 1, node 15), m
         49    3.330E+01                                 F               0         IfW X-component position of node 17 (blade 1, node 16), m
         50    7.826E+00                                 F               0         IfW Y-component position of node 17 (blade 1, node 16), m
         51    2.214E+02                                 F               0         IfW Z-component position of node 17 (blade 1, node 16), m
         52    3.416E+01                                 F               0         IfW X-component position of node 18 (blade 1, node 17), m
         53    8.625E+00                                 F               0         IfW Y-component position of node 18 (blade 1, node 17), m
         54    2.251E+02                                 F               0         IfW Z-component position of node 18 (blade 1, node 17), m
         55    3.501E+01                                 F               0         IfW X-component position of node 19 (blade 1, node 18), m
         56    9.424E+00                                 F               0         IfW Y-component position of node 19 (blade 1, node 18), m
         57    2.287E+02                                 F               0         IfW Z-component position of node 19 (blade 1, node 18), m
         58    3.587E+01                                 F               0         IfW X-component position of node 20 (blade 1, node 19), m
         59    1.022E+01                                 F               0         IfW Y-component position of node 20 (blade 1, node 19), m
         60    2.324E+02                                 F               0         IfW Z-component position of node 20 (blade 1, node 19), m
         61    3.672E+01                                 F               0         IfW X-component position of node 21 (blade 1, node 20), m
         62    1.102E+01                                 F               0         IfW Y-component position of node 21 (blade 1, node 20), m
         63    2.361E+02                                 F               0         IfW Z-component position of node 21 (blade 1, node 20), m
         64    3.758E+01                                 F               0         IfW X-component position of node 22 (blade 1, node 21), m
         65    1.182E+01                                 F               0         IfW Y-component position of node 22 (blade 1, node 21), m
         66    2.398E+02                                 F               0         IfW Z-component position of node 22 (blade 1, node 21), m
         67    3.844E+01                                 F               0         IfW X-component position of node 23 (blade 1, node 22), m
         68    1.262E+01                                 F               0         IfW Y-component position of node 23 (blade 1, node 22), m
         69    2.435E+02                                 F               0         IfW Z-component position of node 23 (blade 1, node 22), m
         70    3.929E+01                                 F               0         IfW X-component position of node 24 (blade 1, node 23), m
         71    1.342E+01                                 F               0         IfW Y-component position of node 24 (blade 1, node 23), m
         72    2.472E+02                                 F               0         IfW Z-component position of node 24 (blade 1, node 23), m
         73    4.015E+01                                 F               0         IfW X-component position of node 25 (blade 1, node 24), m
         74    1.422E+01                                 F               0         IfW Y-component position of node 25 (blade 1, node 24), m
         75    2.509E+02                                 F               0         IfW Z-component position of node 25 (blade 1, node 24), m
         76    4.100E+01                                 F               0         IfW X-component position of node 26 (blade 1, node 25), m
         77    1.502E+01                                 F               0         IfW Y-component position of node 26 (blade 1, node 25), m
         78    2.545E+02                                 F               0         IfW Z-component position of node 26 (blade 1, node 25), m
         79    4.186E+01                                 F               0         IfW X-component position of node 27 (blade 1, node 26), m
         80    1.582E+01                                 F               0         IfW Y-component position of node 27 (blade 1, node 26), m
         81    2.582E+02                                 F               0         IfW Z-component position of node 27 (blade 1, node 26), m
         82    4.272E+01                                 F               0         IfW X-component position of node 28 (blade 1, node 27), m
         83    1.662E+01                                 F               0         IfW Y-component position of node 28 (blade 1, node 27), m
         84    2.619E+02                                 F               0         IfW Z-component position of node 28 (blade 1, node 27), m
         85    4.344E+01                                 F               0         IfW X-component position of node 29 (blade 1, node 28), m
         86    1.730E+01                                 F               0         IfW Y-component position of node 29 (blade 1, node 28), m
         87    2.650E+02                                 F               0         IfW Z-component position of node 29 (blade 1, node 28), m
         88    1.631E+01                                 F               0         IfW X-component position of node 30 (blade 2, node 1), m
         89   -1.300E+01                                 F               0         IfW Y-component position of node 30 (blade 2, node 1), m
         90    1.479E+02                                 F               0         IfW Z-component position of node 30 (blade 2, node 1), m
         91    1.624E+01                                 F               0         IfW X-component position of node 31 (blade 2, node 2), m
         92   -1.427E+01                                 F               0         IfW Y-component position of node 31 (blade 2, node 2), m
         93    1.475E+02                                 F               0         IfW Z-component position of node 31 (blade 2, node 2), m
         94    1.520E+01                                 F               0         IfW X-component position of node 32 (blade 2, node 3), m
         95   -3.153E+01                                 F               0         IfW Y-component position of node 32 (blade 2, node 3), m
         96    1.420E+02                                 F               0         IfW Z-component position of node 32 (blade 2, node 3), m
         97    1.498E+01                                 F               0         IfW X-component position of node 33 (blade 2, node 4), m
         98   -3.520E+01                                 F               0         IfW Y-component position of node 33 (blade 2, node 4), m
         99    1.408E+02                                 F               0         IfW Z-component position of node 33 (blade 2, node 4), m
        100    1.476E+01                                 F               0         IfW X-component position of node 34 (blade 2, node 5), m
        101   -3.888E+01                                 F               0         IfW Y-component position of node 34 (blade 2, node 5), m
        102    1.396E+02                                 F               0         IfW Z-component position of node 34 (blade 2, node 5), m
        103    1.454E+01                                 F               0         IfW X-component position of node 35 (blade 2, node 6), m
        104   -4.256E+01                                 F               0         IfW Y-component position of node 35 (blade 2, node 6), m
        105    1.384E+02                                 F               0         IfW Z-component position of node 35 (blade 2, node 6), m
        106    1.432E+01                                 F               0         IfW X-component position of node 36 (blade 2, node 7), m
        107   -4.623E+01                                 F               0         IfW Y-component position of node 36 (blade 2, node 7), m
        108    1.372E+02                                 F               0         IfW Z-component position of node 36 (blade 2, node 7), m
        109    1.410E+01                                 F               0         IfW X-component position of node 37 (blade 2, node 8), m
        110   -4.991E+01                                 F               0         IfW Y-component position of node 37 (blade 2, node 8), m
        111    1.361E+02                                 F               0         IfW Z-component position of node 37 (blade 2, node 8), m
        112    1.388E+01                                 F               0         IfW X-component position of node 38 (blade 2, node 9), m
        113   -5.359E+01                                 F               0         IfW Y-component position of node 38 (blade 2, node 9), m
        114    1.349E+02                                 F               0         IfW Z-component position of node 38 (blade 2, node 9), m
        115    1.366E+01                                 F               0         IfW X-component position of node 39 (blade 2, node 10), m
        116   -5.726E+01                                 F               0         IfW Y-component position of node 39 (blade 2, node 10), m
        117    1.337E+02                                 F               0         IfW Z-component position of node 39 (blade 2, node 10), m
        118    1.344E+01                                 F               0         IfW X-component position of node 40 (blade 2, node 11), m
        119   -6.094E+01                                 F               0         IfW Y-component position of node 40 (blade 2, node 11), m
        120    1.325E+02                                 F               0         IfW Z-component position of node 40 (blade 2, node 11), m
        121    1.322E+01                                 F               0         IfW X-component position of node 41 (blade 2, node 12), m
        122   -6.461E+01                                 F               0         IfW Y-component position of node 41 (blade 2, node 12), m
        123    1.313E+02                                 F               0         IfW Z-component position of node 41 (blade 2, node 12), m
        124    1.300E+01                                 F               0         IfW X-component position of node 42 (blade 2, node 13), m
        125   -6.829E+01                                 F               0         IfW Y-component position of node 42 (blade 2, node 13), m
        126    1.302E+02                                 F               0         IfW Z-component position of node 42 (blade 2, node 13), m
        127    1.278E+01                                 F               0         IfW X-component position of node 43 (blade 2, node 14), m
        128   -7.197E+01                                 F               0         IfW Y-component position of node 43 (blade 2, node 14), m
        129    1.290E+02                                 F               0         IfW Z-component position of node 43 (blade 2, node 14), m
        130    1.256E+01                                 F               0         IfW X-component position of node 44 (blade 2, node 15), m
        131   -7.564E+01                                 F               0         IfW Y-component position of node 44 (blade 2, node 15), m
        132    1.278E+02                                 F               0         IfW Z-component position of node 44 (blade 2, node 15), m
        133    1.234E+01                                 F               0         IfW X-component position of node 45 (blade 2, node 16), m
        134   -7.932E+01                                 F               0         IfW Y-component position of node 45 (blade 2, node 16), m
        135    1.266E+02                                 F               0         IfW Z-component position of node 45 (blade 2, node 16), m
        136    1.212E+01                                 F               0         IfW X-component position of node 46 (blade 2, node 17), m
        137   -8.300E+01                                 F               0         IfW Y-component position of node 46 (blade 2, node 17), m
        138    1.254E+02                                 F               0         IfW Z-component position of node 46 (blade 2, node 17), m
        139    1.190E+01                                 F               0         IfW X-component position of node 47 (blade 2, node 18), m
        140   -8.667E+01                                 F               0         IfW Y-component position of node 47 (blade 2, node 18), m
        141    1.243E+02                                 F               0         IfW Z-component position of node 47 (blade 2, node 18), m
        142    1.168E+01                                 F               0         IfW X-component position of node 48 (blade 2, node 19), m
        143   -9.035E+01                                 F               0         IfW Y-component position of node 48 (blade 2, node 19), m
        144    1.231E+02                                 F               0         IfW Z-component position of node 48 (blade 2, node 19), m