
Linearized model: Predictions were generated on 07-Feb-2024 at 11:38:03 using OpenFAST, compiled as a 64-bit application using single precision at commit v3.5.1
 linked with  NWTC Subroutine Library; ElastoDyn; InflowWind; AeroDyn; ServoDyn; HydroDyn; MAP++ (<1.20.10>, <Oct-20-2023>)

Description from the FAST input file: CCT-9 Campign 4 model. Input files to be run with OpenFAST 3.5.0. GitHub branch from Lu Wang (https://github.com/luwang00/openfast/tree/dev) compiled on March 7, 2023.

Simulation information:
   Simulation time:                  1008.2000 s
   Rotor Speed:                         1.0425 rad/s
   Azimuth:                             3.2976 rad
   Wind Speed:                         12.0000 m/s
   Number of continuous states:        22
   Number of discrete states:           0
   Number of constraint states:         0
   Number of inputs:                 1890
   Number of outputs:                  24
   Jacobians included in this file?    No

Order of continuous states:
   Row/Column Operating Point                     Rotating Frame? Derivative Order Description
   ---------- ---------------                     --------------- ---------------- -----------
          1    1.229E+01                                 F               2         Platform horizontal surge translation DOF (internal DOF index = DOF_Sg), m
          2   -2.192E-01                                 F               2         Platform horizontal sway translation DOF (internal DOF index = DOF_Sw), m
          3   -2.429E-01                                 F               2         Platform vertical heave translation DOF (internal DOF index = DOF_Hv), m
          4    5.350E-02                                 F               2         Platform roll tilt rotation DOF (internal DOF index = DOF_R), rad
          5    1.566E-01                                 F               2         Platform pitch tilt rotation DOF (internal DOF index = DOF_P), rad
          6    1.029E-02                                 F               2         Platform yaw rotation DOF (internal DOF index = DOF_Y), rad
          7    1.080E+00                                 F               2         1st tower fore-aft bending mode DOF (internal DOF index = DOF_TFA1), m
          8    2.336E-01                                 F               2         1st tower side-to-side bending mode DOF (internal DOF index = DOF_TSS1), m
          9    1.615E-03                                 F               2         2nd tower fore-aft bending mode DOF (internal DOF index = DOF_TFA2), m
         10    9.692E-05                                 F               2         2nd tower side-to-side bending mode DOF (internal DOF index = DOF_TSS2), m
         11    1.727E+00                                 F               2         Variable speed generator DOF (internal DOF index = DOF_GeAz), rad
         12    5.061E-04                                 F               2         First time derivative of Platform horizontal surge translation DOF (internal DOF index = DOF_Sg), m/s
         13   -7.069E-04                                 F               2         First time derivative of Platform horizontal sway translation DOF (internal DOF index = DOF_Sw), m/s
         14    5.525E-03                                 F               2         First time derivative of Platform vertical heave translation DOF (internal DOF index = DOF_Hv), m/s
         15   -2.109E-04                                 F               2         First time derivative of Platform roll tilt rotation DOF (internal DOF index = DOF_R), rad/s
         16   -8.712E-05                                 F               2         First time derivative of Platform pitch tilt rotation DOF (internal DOF index = DOF_P), rad/s
         17    4.235E-04                                 F               2         First time derivative of Platform yaw rotation DOF (internal DOF index = DOF_Y), rad/s
         18   -3.285E-03                                 F               2         First time derivative of 1st tower fore-aft bending mode DOF (internal DOF index = DOF_TFA1), m/s
         19   -2.116E-03                                 F               2         First time derivative of 1st tower side-to-side bending mode DOF (internal DOF index = DOF_TSS1), m/s
         20   -5.555E-06                                 F               2         First time derivative of 2nd tower fore-aft bending mode DOF (internal DOF index = DOF_TFA2), m/s
         21    8.438E-07                                 F               2         First time derivative of 2nd tower side-to-side bending mode DOF (internal DOF index = DOF_TSS2), m/s
         22    1.043E+00                                 F               2         First time derivative of Variable speed generator DOF (internal DOF index = DOF_GeAz), rad/s

Order of continuous state derivatives:
   Row/Column Operating Point                     Rotating Frame? Derivative Order Description
   ---------- ---------------                     --------------- ---------------- -----------
          1    5.061E-04                                 F               2         First time derivative of Platform horizontal surge translation DOF (internal DOF index = DOF_Sg), m/s
          2   -7.069E-04                                 F               2         First time derivative of Platform horizontal sway translation DOF (internal DOF index = DOF_Sw), m/s
          3    5.525E-03                                 F               2         First time derivative of Platform vertical heave translation DOF (internal DOF index = DOF_Hv), m/s
          4   -2.109E-04                                 F               2         First time derivative of Platform roll tilt rotation DOF (internal DOF index = DOF_R), rad/s
          5   -8.712E-05                                 F               2         First time derivative of Platform pitch tilt rotation DOF (internal DOF index = DOF_P), rad/s
          6    4.235E-04                                 F               2         First time derivative of Platform yaw rotation DOF (internal DOF index = DOF_Y), rad/s
          7   -3.285E-03                                 F               2         First time derivative of 1st tower fore-aft bending mode DOF (internal DOF index = DOF_TFA1), m/s
          8   -2.116E-03                                 F               2         First time derivative of 1st tower side-to-side bending mode DOF (internal DOF index = DOF_TSS1), m/s
          9   -5.555E-06                                 F               2         First time derivative of 2nd tower fore-aft bending mode DOF (internal DOF index = DOF_TFA2), m/s
         10    8.438E-07                                 F               2         First time derivative of 2nd tower side-to-side bending mode DOF (internal DOF index = DOF_TSS2), m/s
         11    1.043E+00                                 F               2         First time derivative of Variable speed generator DOF (internal DOF index = DOF_GeAz), rad/s
         12    7.444E-05                                 F               2         First time derivative of First time derivative of Platform horizontal surge translation DOF (internal DOF index = DOF_Sg), m/s/s
         13   -6.734E-04                                 F               2         First time derivative of First time derivative of Platform horizontal sway translation DOF (internal DOF index = DOF_Sw), m/s/s
         14   -3.012E-04                                 F               2         First time derivative of First time derivative of Platform vertical heave translation DOF (internal DOF index = DOF_Hv), m/s/s
         15   -3.707E-04                                 F               2         First time derivative of First time derivative of Platform roll tilt rotation DOF (internal DOF index = DOF_R), rad/s/s
         16   -9.226E-06                                 F               2         First time derivative of First time derivative of Platform pitch tilt rotation DOF (internal DOF index = DOF_P), rad/s/s
         17    1.167E-04                                 F               2         First time derivative of First time derivative of Platform yaw rotation DOF (internal DOF index = DOF_Y), rad/s/s
         18    2.539E-03                                 F               2         First time derivative of First time derivative of 1st tower fore-aft bending mode DOF (internal DOF index = DOF_TFA1), m/s/s
         19   -5.504E-03                                 F               2         First time derivative of First time derivative of 1st tower side-to-side bending mode DOF (internal DOF index = DOF_TSS1), m/s/s
         20    1.451E-06                                 F               2         First time derivative of First time derivative of 2nd tower fore-aft bending mode DOF (internal DOF index = DOF_TFA2), m/s/s
         21   -4.626E-07                                 F               2         First time derivative of First time derivative of 2nd tower side-to-side bending mode DOF (internal DOF index = DOF_TSS2), m/s/s
         22    6.605E-04                                 F               2         First time derivative of First time derivative of Variable speed generator DOF (internal DOF index = DOF_GeAz), rad/s/s

Order of inputs:
     Column   Operating Point                     Rotating Frame? Derivative Order Description
   ---------- ---------------                     --------------- ---------------- -----------
          1    9.389E+01                                 F               0         Blade 1 X force, node 1, N
          2   -9.544E+01                                 F               0         Blade 1 Y force, node 1, N
          3   -4.768E+01                                 F               0         Blade 1 Z force, node 1, N
          4    4.184E+02                                 F               0         Blade 1 X force, node 2, N
          5   -1.763E+02                                 F               0         Blade 1 Y force, node 2, N
          6   -1.576E+02                                 F               0         Blade 1 Z force, node 2, N
          7    5.679E+02                                 F               0         Blade 1 X force, node 3, N
          8   -8.631E+01                                 F               0         Blade 1 Y force, node 3, N
          9   -1.802E+02                                 F               0         Blade 1 Z force, node 3, N
         10    7.620E+02                                 F               0         Blade 1 X force, node 4, N
         11   -1.756E+01                                 F               0         Blade 1 Y force, node 4, N
         12   -2.202E+02                                 F               0         Blade 1 Z force, node 4, N
         13    9.561E+02                                 F               0         Blade 1 X force, node 5, N
         14    5.120E+01                                 F               0         Blade 1 Y force, node 5, N
         15   -2.602E+02                                 F               0         Blade 1 Z force, node 5, N
         16    1.150E+03                                 F               0         Blade 1 X force, node 6, N
         17    1.200E+02                                 F               0         Blade 1 Y force, node 6, N
         18   -3.001E+02                                 F               0         Blade 1 Z force, node 6, N
         19    1.344E+03                                 F               0         Blade 1 X force, node 7, N
         20    1.887E+02                                 F               0         Blade 1 Y force, node 7, N
         21   -3.401E+02                                 F               0         Blade 1 Z force, node 7, N
         22    1.538E+03                                 F               0         Blade 1 X force, node 8, N
         23    2.575E+02                                 F               0         Blade 1 Y force, node 8, N
         24   -3.800E+02                                 F               0         Blade 1 Z force, node 8, N
         25    1.733E+03                                 F               0         Blade 1 X force, node 9, N
         26    3.262E+02                                 F               0         Blade 1 Y force, node 9, N
         27   -4.200E+02                                 F               0         Blade 1 Z force, node 9, N
         28    1.927E+03                                 F               0         Blade 1 X force, node 10, N
         29    3.950E+02                                 F               0         Blade 1 Y force, node 10, N
         30   -4.600E+02                                 F               0         Blade 1 Z force, node 10, N
         31    2.121E+03                                 F               0         Blade 1 X force, node 11, N
         32    4.637E+02                                 F               0         Blade 1 Y force, node 11, N
         33   -4.999E+02                                 F               0         Blade 1 Z force, node 11, N
         34    2.315E+03                                 F               0         Blade 1 X force, node 12, N
         35    5.325E+02                                 F               0         Blade 1 Y force, node 12, N
         36   -5.399E+02                                 F               0         Blade 1 Z force, node 12, N
         37    2.509E+03                                 F               0         Blade 1 X force, node 13, N
         38    6.013E+02                                 F               0         Blade 1 Y force, node 13, N
         39   -5.799E+02                                 F               0         Blade 1 Z force, node 13, N
         40    2.703E+03                                 F               0         Blade 1 X force, node 14, N
         41    6.700E+02                                 F               0         Blade 1 Y force, node 14, N
         42   -6.198E+02                                 F               0         Blade 1 Z force, node 14, N
         43    2.897E+03                                 F               0         Blade 1 X force, node 15, N
         44    7.388E+02                                 F               0         Blade 1 Y force, node 15, N
         45   -6.598E+02                                 F               0         Blade 1 Z force, node 15, N
         46    3.091E+03                                 F               0         Blade 1 X force, node 16, N
         47    8.075E+02                                 F               0         Blade 1 Y force, node 16, N
         48   -6.997E+02                                 F               0         Blade 1 Z force, node 16, N
         49    3.812E+03                                 F               0         Blade 1 X force, node 17, N
         50    1.013E+03                                 F               0         Blade 1 Y force, node 17, N
         51   -8.590E+02                                 F               0         Blade 1 Z force, node 17, N
         52    2.926E+03                                 F               0         Blade 1 X force, node 18, N
         53    7.529E+02                                 F               0         Blade 1 Y force, node 18, N
         54   -6.647E+02                                 F               0         Blade 1 Z force, node 18, N
         55    3.610E+03                                 F               0         Blade 1 X force, node 19, N
         56    8.875E+02                                 F               0         Blade 1 Y force, node 19, N
         57   -8.294E+02                                 F               0         Blade 1 Z force, node 19, N
         58    3.094E+03                                 F               0         Blade 1 X force, node 20, N
         59    7.281E+02                                 F               0         Blade 1 Y force, node 20, N
         60   -7.180E+02                                 F               0         Blade 1 Z force, node 20, N
         61    4.595E+03                                 F               0         Blade 1 X force, node 21, N
         62    1.028E+03                                 F               0         Blade 1 Y force, node 21, N
         63   -1.078E+03                                 F               0         Blade 1 Z force, node 21, N
         64    4.078E+03                                 F               0         Blade 1 X force, node 22, N
         65    8.670E+02                                 F               0         Blade 1 Y force, node 22, N
         66   -9.668E+02                                 F               0         Blade 1 Z force, node 22, N
         67    4.208E+03                                 F               0         Blade 1 X force, node 23, N
         68    8.543E+02                                 F               0         Blade 1 Y force, node 23, N
         69   -1.007E+03                                 F               0         Blade 1 Z force, node 23, N
         70    4.414E+03                                 F               0         Blade 1 X force, node 24, N
         71    8.563E+02                                 F               0         Blade 1 Y force, node 24, N
         72   -1.064E+03                                 F               0         Blade 1 Z force, node 24, N
         73    4.542E+03                                 F               0         Blade 1 X force, node 25, N
         74    8.426E+02                                 F               0         Blade 1 Y force, node 25, N
         75   -1.104E+03                                 F               0         Blade 1 Z force, node 25, N
         76    4.695E+03                                 F               0         Blade 1 X force, node 26, N
         77    8.337E+02                                 F               0         Blade 1 Y force, node 26, N
         78   -1.149E+03                                 F               0         Blade 1 Z force, node 26, N
         79    5.648E+03                                 F               0         Blade 1 X force, node 27, N
         80    9.583E+02                                 F               0         Blade 1 Y force, node 27, N
         81   -1.392E+03                                 F               0         Blade 1 Z force, node 27, N
         82    4.202E+03                                 F               0         Blade 1 X force, node 28, N
         83    6.821E+02                                 F               0         Blade 1 Y force, node 28, N
         84   -1.043E+03                                 F               0         Blade 1 Z force, node 28, N
         85    5.155E+03                                 F               0         Blade 1 X force, node 29, N
         86    8.062E+02                                 F               0         Blade 1 Y force, node 29, N
         87   -1.286E+03                                 F               0         Blade 1 Z force, node 29, N
         88    4.398E+03                                 F               0         Blade 1 X force, node 30, N
         89    6.631E+02                                 F               0         Blade 1 Y force, node 30, N
         90   -1.102E+03                                 F               0         Blade 1 Z force, node 30, N
         91    6.372E+03                                 F               0         Blade 1 X force, node 31, N
         92    9.208E+02                                 F               0         Blade 1 Y force, node 31, N
         93   -1.606E+03                                 F               0         Blade 1 Z force, node 31, N
         94    5.614E+03                                 F               0         Blade 1 X force, node 32, N
         95    7.773E+02                                 F               0         Blade 1 Y force, node 32, N
         96   -1.422E+03                                 F               0         Blade 1 Z force, node 32, N
         97    5.765E+03                                 F               0         Blade 1 X force, node 33, N
         98    7.672E+02                                 F               0         Blade 1 Y force, node 33, N
         99   -1.468E+03                                 F               0         Blade 1 Z force, node 33, N
        100    5.918E+03                                 F               0         Blade 1 X force, node 34, N
        101    7.573E+02                                 F               0         Blade 1 Y force, node 34, N
        102   -1.513E+03                                 F               0         Blade 1 Z force, node 34, N
        103    6.071E+03                                 F               0         Blade 1 X force, node 35, N
        104    7.473E+02                                 F               0         Blade 1 Y force, node 35, N
        105   -1.559E+03                                 F               0         Blade 1 Z force, node 35, N
        106    6.222E+03                                 F               0         Blade 1 X force, node 36, N
        107    7.370E+02                                 F               0         Blade 1 Y force, node 36, N
        108   -1.604E+03                                 F               0         Blade 1 Z force, node 36, N
        109    7.458E+03                                 F               0         Blade 1 X force, node 37, N
        110    8.484E+02                                 F               0         Blade 1 Y force, node 37, N
        111   -1.930E+03                                 F               0         Blade 1 Z force, node 37, N
        112    5.442E+03                                 F               0         Blade 1 X force, node 38, N
        113    5.951E+02                                 F               0         Blade 1 Y force, node 38, N
        114   -1.414E+03                                 F               0         Blade 1 Z force, node 38, N
        115    6.680E+03                                 F               0         Blade 1 X force, node 39, N
        116    7.065E+02                                 F               0         Blade 1 Y force, node 39, N
        117   -1.741E+03                                 F               0         Blade 1 Z force, node 39, N
        118    5.705E+03                                 F               0         Blade 1 X force, node 40, N
        119    5.837E+02                                 F               0         Blade 1 Y force, node 40, N
        120   -1.491E+03                                 F               0         Blade 1 Z force, node 40, N
        121    8.115E+03                                 F               0         Blade 1 X force, node 41, N
        122    7.988E+02                                 F               0         Blade 1 Y force, node 41, N
        123   -2.128E+03                                 F               0         Blade 1 Z force, node 41, N
        124    7.137E+03                                 F               0         Blade 1 X force, node 42, N
        125    6.755E+02                                 F               0         Blade 1 Y force, node 42, N
        126   -1.877E+03                                 F               0         Blade 1 Z force, node 42, N
        127    7.288E+03                                 F               0         Blade 1 X force, node 43, N
        128    6.648E+02                                 F               0         Blade 1 Y force, node 43, N
        129   -1.923E+03                                 F               0         Blade 1 Z force, node 43, N
        130    7.478E+03                                 F               0         Blade 1 X force, node 44, N
        131    6.576E+02                                 F               0         Blade 1 Y force, node 44, N
        132   -1.978E+03                                 F               0         Blade 1 Z force, node 44, N
        133    7.550E+03                                 F               0         Blade 1 X force, node 45, N
        134    6.400E+02                                 F               0         Blade 1 Y force, node 45, N
        135   -2.003E+03                                 F               0         Blade 1 Z force, node 45, N
        136    7.741E+03                                 F               0         Blade 1 X force, node 46, N
        137    6.328E+02                                 F               0         Blade 1 Y force, node 46, N
        138   -2.058E+03                                 F               0         Blade 1 Z force, node 46, N
        139    9.277E+03                                 F               0         Blade 1 X force, node 47, N
        140    7.295E+02                                 F               0         Blade 1 Y force, node 47, N
        141   -2.473E+03                                 F               0         Blade 1 Z force, node 47, N
        142    6.657E+03                                 F               0         Blade 1 X force, node 48, N
        143    5.039E+02                                 F               0         Blade 1 Y force, node 48, N
        144   -1.779E+03                                 F               0         Blade 1 Z force, node 48, N
        145    8.193E+03                                 F               0         Blade 1 X force, node 49, N
        146    6.004E+02                                 F               0         Blade 1 Y force, node 49, N
        147   -2.194E+03                                 F               0         Blade 1 Z force, node 49, N
        148    7.016E+03                                 F               0         Blade 1 X force, node 50, N
        149    4.976E+02                                 F               0         Blade 1 Y force, node 50, N
        150   -1.882E+03                                 F               0         Blade 1 Z force, node 50, N
        151    9.822E+03                                 F               0         Blade 1 X force, node 51, N
        152    6.706E+02                                 F               0         Blade 1 Y force, node 51, N
        153   -2.640E+03                                 F               0         Blade 1 Z force, node 51, N
        154    8.647E+03                                 F               0         Blade 1 X force, node 52, N
        155    5.681E+02                                 F               0         Blade 1 Y force, node 52, N
        156   -2.330E+03                                 F               0         Blade 1 Z force, node 52, N
        157    8.799E+03                                 F               0         Blade 1 X force, node 53, N
        158    5.575E+02                                 F               0         Blade 1 Y force, node 53, N
        159   -2.375E+03                                 F               0         Blade 1 Z force, node 53, N
        160    9.050E+03                                 F               0         Blade 1 X force, node 54, N
        161    5.528E+02                                 F               0         Blade 1 Y force, node 54, N
        162   -2.448E+03                                 F               0         Blade 1 Z force, node 54, N
        163    9.005E+03                                 F               0         Blade 1 X force, node 55, N
        164    5.302E+02                                 F               0         Blade 1 Y force, node 55, N
        165   -2.440E+03                                 F               0         Blade 1 Z force, node 55, N
        166    9.255E+03                                 F               0         Blade 1 X force, node 56, N
        167    5.254E+02                                 F               0         Blade 1 Y force, node 56, N
        168   -2.512E+03                                 F               0         Blade 1 Z force, node 56, N
        169    1.111E+04                                 F               0         Blade 1 X force, node 57, N
        170    6.062E+02                                 F               0         Blade 1 Y force, node 57, N
        171   -3.020E+03                                 F               0         Blade 1 Z force, node 57, N
        172    7.856E+03                                 F               0         Blade 1 X force, node 58, N
        173    4.122E+02                                 F               0         Blade 1 Y force, node 58, N
        174   -2.139E+03                                 F               0         Blade 1 Z force, node 58, N
        175    9.711E+03                                 F               0         Blade 1 X force, node 59, N
        176    4.930E+02                                 F               0         Blade 1 Y force, node 59, N
        177   -2.648E+03                                 F               0         Blade 1 Z force, node 59, N
        178    8.352E+03                                 F               0         Blade 1 X force, node 60, N
        179    4.099E+02                                 F               0         Blade 1 Y force, node 60, N
        180   -2.281E+03                                 F               0         Blade 1 Z force, node 60, N
        181    1.152E+04                                 F               0         Blade 1 X force, node 61, N
        182    5.435E+02                                 F               0         Blade 1 Y force, node 61, N
        183   -3.152E+03                                 F               0         Blade 1 Z force, node 61, N
        184    1.016E+04                                 F               0         Blade 1 X force, node 62, N