
Linearized model: Predictions were generated on 13-Feb-2024 at 11:29:37 using OpenFAST, compiled as a 64-bit application using single precision at commit v3.5.1
 linked with  NWTC Subroutine Library; ElastoDyn; InflowWind; AeroDyn; ServoDyn; HydroDyn; MAP++ (<1.20.10>, <Oct-20-2023>)

Description from the FAST input file: CCT-9 Campign 4 model. Input files to be run with OpenFAST 3.5.0. GitHub branch from Lu Wang (https://github.com/luwang00/openfast/tree/dev) compiled on March 7, 2023.

Simulation information:
   Simulation time:                  1216.1250 s
   Rotor Speed:                         0.7919 rad/s
   Azimuth:                             4.1958 rad
   Wind Speed:                         16.0000 m/s
   Number of continuous states:         0
   Number of discrete states:           0
   Number of constraint states:         0
   Number of inputs:                  303
   Number of outputs:                   1
   Jacobians included in this file?    No

Order of inputs:
     Column   Operating Point                                                   Rotating Frame? Derivative Order Description
   ---------- ---------------                                                   --------------- ---------------- -----------
          1    -1.08005075455E+001                                                     F               0         X-component position of node 1 (hub), m
          2     0.00000000000E+000                                                     F               0         Y-component position of node 1 (hub), m
          3     1.49740173340E+002                                                     F               0         Z-component position of node 1 (hub), m
          4     1.41331853867E+001                                                     F               0         X-component position of node 2 (blade 1, node 1), m
          5    -3.38766527176E+000                                                     F               0         Y-component position of node 2 (blade 1, node 1), m
          6     1.47244094849E+002                                                     F               0         Z-component position of node 2 (blade 1, node 1), m
          7     1.39938850403E+001                                                     F               0         X-component position of node 3 (blade 1, node 2), m
          8    -2.19510936737E+000                                                     F               0         Y-component position of node 3 (blade 1, node 2), m
          9     1.46660675049E+002                                                     F               0         Z-component position of node 3 (blade 1, node 2), m
         10     1.20996437073E+001                                                     F               0         X-component position of node 4 (blade 1, node 3), m
         11     1.40215835571E+001                                                     F               0         Y-component position of node 4 (blade 1, node 3), m
         12     1.38727157593E+002                                                     F               0         Z-component position of node 4 (blade 1, node 3), m
         13     1.16960668564E+001                                                     F               0         X-component position of node 5 (blade 1, node 4), m
         14     1.74766464233E+001                                                     F               0         Y-component position of node 5 (blade 1, node 4), m
         15     1.37036880493E+002                                                     F               0         Z-component position of node 5 (blade 1, node 4), m
         16     1.12924098969E+001                                                     F               0         X-component position of node 6 (blade 1, node 5), m
         17     2.09323654175E+001                                                     F               0         Y-component position of node 6 (blade 1, node 5), m
         18     1.35346282959E+002                                                     F               0         Z-component position of node 6 (blade 1, node 5), m
         19     1.08888292313E+001                                                     F               0         X-component position of node 7 (blade 1, node 6), m
         20     2.43874416351E+001                                                     F               0         Y-component position of node 7 (blade 1, node 6), m
         21     1.33655990601E+002                                                     F               0         Z-component position of node 7 (blade 1, node 6), m
         22     1.04852466583E+001                                                     F               0         X-component position of node 8 (blade 1, node 7), m
         23     2.78425292969E+001                                                     F               0         Y-component position of node 8 (blade 1, node 7), m
         24     1.31965698242E+002                                                     F               0         Z-component position of node 8 (blade 1, node 7), m
         25     1.00815925598E+001                                                     F               0         X-component position of node 9 (blade 1, node 8), m
         26     3.12982349396E+001                                                     F               0         Y-component position of node 9 (blade 1, node 8), m
         27     1.30275100708E+002                                                     F               0         Z-component position of node 9 (blade 1, node 8), m
         28     9.67800998688E+000                                                     F               0         X-component position of node 10 (blade 1, node 9), m
         29     3.47533226013E+001                                                     F               0         Y-component position of node 10 (blade 1, node 9), m
         30     1.28584808350E+002                                                     F               0         Z-component position of node 10 (blade 1, node 9), m
         31     9.27442932129E+000                                                     F               0         X-component position of node 11 (blade 1, node 10), m
         32     3.82084007263E+001                                                     F               0         Y-component position of node 11 (blade 1, node 10), m
         33     1.26894515991E+002                                                     F               0         Z-component position of node 11 (blade 1, node 10), m
         34     8.87084674835E+000                                                     F               0         X-component position of node 12 (blade 1, node 11), m
         35     4.16634902954E+001                                                     F               0         Y-component position of node 12 (blade 1, node 11), m
         36     1.25204223633E+002                                                     F               0         Z-component position of node 12 (blade 1, node 11), m
         37     8.46719646454E+000                                                     F               0         X-component position of node 13 (blade 1, node 12), m
         38     4.51191825867E+001                                                     F               0         Y-component position of node 13 (blade 1, node 12), m
         39     1.23513633728E+002                                                     F               0         Z-component position of node 13 (blade 1, node 12), m
         40     8.06361293793E+000                                                     F               0         X-component position of node 14 (blade 1, node 13), m
         41     4.85742721558E+001                                                     F               0         Y-component position of node 14 (blade 1, node 13), m
         42     1.21823341370E+002                                                     F               0         Z-component position of node 14 (blade 1, node 13), m
         43     7.66003274918E+000                                                     F               0         X-component position of node 15 (blade 1, node 14), m
         44     5.20293464661E+001                                                     F               0         Y-component position of node 15 (blade 1, node 14), m
         45     1.20133049011E+002                                                     F               0         Z-component position of node 15 (blade 1, node 14), m
         46     7.25637626648E+000                                                     F               0         X-component position of node 16 (blade 1, node 15), m
         47     5.54850616455E+001                                                     F               0         Y-component position of node 16 (blade 1, node 15), m
         48     1.18442451477E+002                                                     F               0         Z-component position of node 16 (blade 1, node 15), m
         49     6.85279607773E+000                                                     F               0         X-component position of node 17 (blade 1, node 16), m
         50     5.89401397705E+001                                                     F               0         Y-component position of node 17 (blade 1, node 16), m
         51     1.16752159119E+002                                                     F               0         Z-component position of node 17 (blade 1, node 16), m
         52     6.44921302795E+000                                                     F               0         X-component position of node 18 (blade 1, node 17), m
         53     6.23952331543E+001                                                     F               0         Y-component position of node 18 (blade 1, node 17), m
         54     1.15061859131E+002                                                     F               0         Z-component position of node 18 (blade 1, node 17), m
         55     6.04563236237E+000                                                     F               0         X-component position of node 19 (blade 1, node 18), m
         56     6.58503112793E+001                                                     F               0         Y-component position of node 19 (blade 1, node 18), m
         57     1.13371574402E+002                                                     F               0         Z-component position of node 19 (blade 1, node 18), m
         58     5.64198017120E+000                                                     F               0         X-component position of node 20 (blade 1, node 19), m
         59     6.93060073853E+001                                                     F               0         Y-component position of node 20 (blade 1, node 19), m
         60     1.11680984497E+002                                                     F               0         Z-component position of node 20 (blade 1, node 19), m
         61     5.23839664459E+000                                                     F               0         X-component position of node 21 (blade 1, node 20), m
         62     7.27610931396E+001                                                     F               0         Y-component position of node 21 (blade 1, node 20), m
         63     1.09990692139E+002                                                     F               0         Z-component position of node 21 (blade 1, node 20), m
         64     4.83481645584E+000                                                     F               0         X-component position of node 22 (blade 1, node 21), m
         65     7.62161788940E+001                                                     F               0         Y-component position of node 22 (blade 1, node 21), m
         66     1.08300392151E+002                                                     F               0         Z-component position of node 22 (blade 1, node 21), m
         67     4.43116188049E+000                                                     F               0         X-component position of node 23 (blade 1, node 22), m
         68     7.96718826294E+001                                                     F               0         Y-component position of node 23 (blade 1, node 22), m
         69     1.06609802246E+002                                                     F               0         Z-component position of node 23 (blade 1, node 22), m
         70     4.02757787704E+000                                                     F               0         X-component position of node 24 (blade 1, node 23), m
         71     8.31269760132E+001                                                     F               0         Y-component position of node 24 (blade 1, node 23), m
         72     1.04919509888E+002                                                     F               0         Z-component position of node 24 (blade 1, node 23), m
         73     3.62399768829E+000                                                     F               0         X-component position of node 25 (blade 1, node 24), m
         74     8.65820541382E+001                                                     F               0         Y-component position of node 25 (blade 1, node 24), m
         75     1.03229217529E+002                                                     F               0         Z-component position of node 25 (blade 1, node 24), m
         76     3.22041726112E+000                                                     F               0         X-component position of node 26 (blade 1, node 25), m
         77     9.00371322632E+001                                                     F               0         Y-component position of node 26 (blade 1, node 25), m
         78     1.01538925171E+002                                                     F               0         Z-component position of node 26 (blade 1, node 25), m
         79     2.81676292419E+000                                                     F               0         X-component position of node 27 (blade 1, node 26), m
         80     9.34928436279E+001                                                     F               0         Y-component position of node 27 (blade 1, node 26), m
         81     9.98483276367E+001                                                     F               0         Z-component position of node 27 (blade 1, node 26), m
         82     2.41318225861E+000                                                     F               0         X-component position of node 28 (blade 1, node 27), m
         83     9.69479141235E+001                                                     F               0         Y-component position of node 28 (blade 1, node 27), m
         84     9.81580429077E+001                                                     F               0         Z-component position of node 28 (blade 1, node 27), m
         85     2.07103013992E+000                                                     F               0         X-component position of node 29 (blade 1, node 28), m
         86     9.98770904541E+001                                                     F               0         Y-component position of node 29 (blade 1, node 28), m
         87     9.67250366211E+001                                                     F               0         Z-component position of node 29 (blade 1, node 28), m
         88     1.59046888351E+001                                                     F               0         X-component position of node 30 (blade 2, node 1), m
         89    -8.65611076355E+000                                                     F               0         Y-component position of node 30 (blade 2, node 1), m
         90     1.55065856934E+002                                                     F               0         Z-component position of node 30 (blade 2, node 1), m
         91     1.61922435760E+001                                                     F               0         X-component position of node 31 (blade 2, node 2), m
         92    -8.73302364349E+000                                                     F               0         Y-component position of node 31 (blade 2, node 2), m
         93     1.56367156982E+002                                                     F               0         Z-component position of node 31 (blade 2, node 2), m
         94     2.01025238037E+001                                                     F               0         X-component position of node 32 (blade 2, node 3), m
         95    -9.77896881104E+000                                                     F               0         Y-component position of node 32 (blade 2, node 3), m
         96     1.74062500000E+002                                                     F               0         Z-component position of node 32 (blade 2, node 3), m
         97     2.09356384277E+001                                                     F               0         X-component position of node 33 (blade 2, node 4), m
         98    -1.00018167496E+001                                                     F               0         Y-component position of node 33 (blade 2, node 4), m
         99     1.77832626343E+002                                                     F               0         Z-component position of node 33 (blade 2, node 4), m
        100     2.17689018250E+001                                                     F               0         X-component position of node 34 (blade 2, node 5), m
        101    -1.02246932983E+001                                                     F               0         Y-component position of node 34 (blade 2, node 5), m
        102     1.81603424072E+002                                                     F               0         Z-component position of node 34 (blade 2, node 5), m
        103     2.26020164490E+001                                                     F               0         X-component position of node 35 (blade 2, node 6), m
        104    -1.04475412369E+001                                                     F               0         Y-component position of node 35 (blade 2, node 6), m
        105     1.85373550415E+002                                                     F               0         Z-component position of node 35 (blade 2, node 6), m
        106     2.34351291656E+001                                                     F               0         X-component position of node 36 (blade 2, node 7), m
        107    -1.06703882217E+001                                                     F               0         Y-component position of node 36 (blade 2, node 7), m
        108     1.89143676758E+002                                                     F               0         Z-component position of node 36 (blade 2, node 7), m
        109     2.42683925629E+001                                                     F               0         X-component position of node 37 (blade 2, node 8), m
        110    -1.08932657242E+001                                                     F               0         Y-component position of node 37 (blade 2, node 8), m
        111     1.92914474487E+002                                                     F               0         Z-component position of node 37 (blade 2, node 8), m
        112     2.51015071869E+001                                                     F               0         X-component position of node 38 (blade 2, node 9), m
        113    -1.11161136627E+001                                                     F               0         Y-component position of node 38 (blade 2, node 9), m
        114     1.96684600830E+002                                                     F               0         Z-component position of node 38 (blade 2, node 9), m
        115     2.59346199036E+001                                                     F               0         X-component position of node 39 (blade 2, node 10), m
        116    -1.13389549255E+001                                                     F               0         Y-component position of node 39 (blade 2, node 10), m
        117     2.00454711914E+002                                                     F               0         Z-component position of node 39 (blade 2, node 10), m
        118     2.67677345276E+001                                                     F               0         X-component position of node 40 (blade 2, node 11), m
        119    -1.15618009567E+001                                                     F               0         Y-component position of node 40 (blade 2, node 11), m
        120     2.04224838257E+002                                                     F               0         Z-component position of node 40 (blade 2, node 11), m
        121     2.76009979248E+001                                                     F               0         X-component position of node 41 (blade 2, node 12), m
        122    -1.17846765518E+001                                                     F               0         Y-component position of node 41 (blade 2, node 12), m
        123     2.07995651245E+002                                                     F               0         Z-component position of node 41 (blade 2, node 12), m
        124     2.84341106415E+001                                                     F               0         X-component position of node 42 (blade 2, node 13), m
        125    -1.20075263977E+001                                                     F               0         Y-component position of node 42 (blade 2, node 13), m
        126     2.11765762329E+002                                                     F               0         Z-component position of node 42 (blade 2, node 13), m
        127     2.92672252655E+001                                                     F               0         X-component position of node 43 (blade 2, node 14), m
        128    -1.22303657532E+001                                                     F               0         Y-component position of node 43 (blade 2, node 14), m
        129     2.15535888672E+002                                                     F               0         Z-component position of node 43 (blade 2, node 14), m
        130     3.01004905701E+001                                                     F               0         X-component position of node 44 (blade 2, node 15), m
        131    -1.24532537460E+001                                                     F               0         Y-component position of node 44 (blade 2, node 15), m
        132     2.19306701660E+002                                                     F               0         Z-component position of node 44 (blade 2, node 15), m
        133     3.09336013794E+001                                                     F               0         X-component position of node 45 (blade 2, node 16), m
        134    -1.26761026382E+001                                                     F               0         Y-component position of node 45 (blade 2, node 16), m
        135     2.23076812744E+002                                                     F               0         Z-component position of node 45 (blade 2, node 16), m
        136     3.17667160034E+001                                                     F               0         X-component position of node 46 (blade 2, node 17), m
        137    -1.28989467621E+001                                                     F               0         Y-component position of node 46 (blade 2, node 17), m
        138     2.26846939087E+002                                                     F               0         Z-component position of node 46 (blade 2, node 17), m
        139     3.25998268127E+001                                                     F               0         X-component position of node 47 (blade 2, node 18), m
        140    -1.31217899323E+001                                                     F               0         Y-component position of node 47 (blade 2, node 18), m
        141     2.30617050171E+002                                                     F               0         Z-component position of node 47 (blade 2, node 18), m
        142     3.34330940247E+001                                                     F               0         X-component position of node 48 (blade 2, node 19), m
        143    -1.33446674347E+001                                                     F               0         Y-component position of node 48 (blade 2, node 19), m
        144     2.34387863159E+002                                                     F               0         Z-component position of node 48 (blade 2, node 19), m
        145     3.42662048340E+001                                                     F               0         X-component position of node 49 (blade 2, node 20), m
        146    -1.35675153732E+001                                                     F               0         Y-component position of node 49 (blade 2, node 20), m
        147     2.38157989502E+002                                                     F               0         Z-component position of node 49 (blade 2, node 20), m
        148     3.50993232727E+001                                                     F               0         X-component position of node 50 (blade 2, node 21), m
        149    -1.37903537750E+001                                                     F               0         Y-component position of node 50 (blade 2, node 21), m
        150     2.41928115845E+002                                                     F               0         Z-component position of node 50 (blade 2, node 21), m
        151     3.59325828552E+001                                                     F               0         X-component position of node 51 (blade 2, node 22), m
        152    -1.40132408142E+001                                                     F               0         Y-component position of node 51 (blade 2, node 22), m
        153     2.45698913574E+002                                                     F               0         Z-component position of node 51 (blade 2, node 22), m
        154     3.67656974792E+001                                                     F               0         X-component position of node 52 (blade 2, node 23), m
        155    -1.42360925674E+001                                                     F               0         Y-component position of node 52 (blade 2, node 23), m
        156     2.49469024658E+002                                                     F               0         Z-component position of node 52 (blade 2, node 23), m
        157     3.75988121033E+001                                                     F               0         X-component position of node 53 (blade 2, node 24), m
        158    -1.44589328766E+001                                                     F               0         Y-component position of node 53 (blade 2, node 24), m
        159     2.53239151001E+002                                                     F               0         Z-component position of node 53 (blade 2, node 24), m
        160     3.84319229126E+001                                                     F               0         X-component position of node 54 (blade 2, node 25), m
        161    -1.46817770004E+001                                                     F               0         Y-component position of node 54 (blade 2, node 25), m
        162     2.57009277344E+002                                                     F               0         Z-component position of node 54 (blade 2, node 25), m
        163     3.92651901245E+001                                                     F               0         X-component position of node 55 (blade 2, node 26), m
        164    -1.49046659470E+001                                                     F               0         Y-component position of node 55 (blade 2, node 26), m
        165     2.60780090332E+002                                                     F               0         Z-component position of node 55 (blade 2, node 26), m
        166     4.00983009338E+001                                                     F               0         X-component position of node 56 (blade 2, node 27), m
        167    -1.51275081635E+001                                                     F               0         Y-component position of node 56 (blade 2, node 27), m
        168     2.64550201416E+002                                                     F               0         Z-component position of node 56 (blade 2, node 27), m
        169     4.08045997620E+001                                                     F               0         X-component position of node 57 (blade 2, node 28), m
        170    -1.53164291382E+001                                                     F               0         Y-component position of node 57 (blade 2, node 28), m
        171     2.67746429443E+002                                                     F               0         Z-component position of node 57 (blade 2, node 28), m
        172     1.40960121155E+001                                                     F               0         X-component position of node 58 (blade 3, node 1), m