
Linearized model: Predictions were generated on 13-Feb-2024 at 12:12:09 using OpenFAST, compiled as a 64-bit application using single precision at commit v3.5.1
 linked with  NWTC Subroutine Library; ElastoDyn; InflowWind; AeroDyn; ServoDyn; HydroDyn; MAP++ (<1.20.10>, <Oct-20-2023>)

Description from the FAST input file: CCT-9 Campign 4 model. Input files to be run with OpenFAST 3.5.0. GitHub branch from Lu Wang (https://github.com/luwang00/openfast/tree/dev) compiled on March 7, 2023.

Simulation information:
   Simulation time:                   776.1750 s
   Rotor Speed:                         0.7921 rad/s
   Azimuth:                             4.5449 rad
   Wind Speed:                         24.0000 m/s
   Number of continuous states:        22
   Number of discrete states:           0
   Number of constraint states:         0
   Number of inputs:                 1890
   Number of outputs:                  25
   Jacobians included in this file?    No

Order of continuous states:
   Row/Column Operating Point                                                   Rotating Frame? Derivative Order Description
   ---------- ---------------                                                   --------------- ---------------- -----------
          1     6.82249403000E+000                                                     F               2         Platform horizontal surge translation DOF (internal DOF index = DOF_Sg), m
          2    -8.23526024818E-001                                                     F               2         Platform horizontal sway translation DOF (internal DOF index = DOF_Sw), m
          3    -1.12935863435E-001                                                     F               2         Platform vertical heave translation DOF (internal DOF index = DOF_Hv), m
          4     5.43589144945E-002                                                     F               2         Platform roll tilt rotation DOF (internal DOF index = DOF_R), rad
          5     9.50920581818E-002                                                     F               2         Platform pitch tilt rotation DOF (internal DOF index = DOF_P), rad
          6    -9.29727312177E-003                                                     F               2         Platform yaw rotation DOF (internal DOF index = DOF_Y), rad
          7     5.71435570717E-001                                                     F               2         1st tower fore-aft bending mode DOF (internal DOF index = DOF_TFA1), m
          8     2.71871119738E-001                                                     F               2         1st tower side-to-side bending mode DOF (internal DOF index = DOF_TSS1), m
          9     1.49043020792E-003                                                     F               2         2nd tower fore-aft bending mode DOF (internal DOF index = DOF_TFA2), m
         10    -2.99812265439E-004                                                     F               2         2nd tower side-to-side bending mode DOF (internal DOF index = DOF_TSS2), m
         11     2.97412872314E+000                                                     F               2         Variable speed generator DOF (internal DOF index = DOF_GeAz), rad
         12     4.31788736023E-004                                                     F               2         First time derivative of Platform horizontal surge translation DOF (internal DOF index = DOF_Sg), m/s
         13    -3.56199627277E-004                                                     F               2         First time derivative of Platform horizontal sway translation DOF (internal DOF index = DOF_Sw), m/s
         14    -4.34024818242E-003                                                     F               2         First time derivative of Platform vertical heave translation DOF (internal DOF index = DOF_Hv), m/s
         15     8.79978251760E-005                                                     F               2         First time derivative of Platform roll tilt rotation DOF (internal DOF index = DOF_R), rad/s
         16    -4.14968526457E-005                                                     F               2         First time derivative of Platform pitch tilt rotation DOF (internal DOF index = DOF_P), rad/s
         17     1.03359416244E-005                                                     F               2         First time derivative of Platform yaw rotation DOF (internal DOF index = DOF_Y), rad/s
         18     6.02427124977E-003                                                     F               2         First time derivative of 1st tower fore-aft bending mode DOF (internal DOF index = DOF_TFA1), m/s
         19    -2.01184991747E-002                                                     F               2         First time derivative of 1st tower side-to-side bending mode DOF (internal DOF index = DOF_TSS1), m/s
         20     1.45501044244E-005                                                     F               2         First time derivative of 2nd tower fore-aft bending mode DOF (internal DOF index = DOF_TFA2), m/s
         21     1.40120973811E-005                                                     F               2         First time derivative of 2nd tower side-to-side bending mode DOF (internal DOF index = DOF_TSS2), m/s
         22     7.92061388493E-001                                                     F               2         First time derivative of Variable speed generator DOF (internal DOF index = DOF_GeAz), rad/s

Order of continuous state derivatives:
   Row/Column Operating Point                                                   Rotating Frame? Derivative Order Description
   ---------- ---------------                                                   --------------- ---------------- -----------
          1     4.31788736023E-004                                                     F               2         First time derivative of Platform horizontal surge translation DOF (internal DOF index = DOF_Sg), m/s
          2    -3.56199627277E-004                                                     F               2         First time derivative of Platform horizontal sway translation DOF (internal DOF index = DOF_Sw), m/s
          3    -4.34024818242E-003                                                     F               2         First time derivative of Platform vertical heave translation DOF (internal DOF index = DOF_Hv), m/s
          4     8.79978251760E-005                                                     F               2         First time derivative of Platform roll tilt rotation DOF (internal DOF index = DOF_R), rad/s
          5    -4.14968526457E-005                                                     F               2         First time derivative of Platform pitch tilt rotation DOF (internal DOF index = DOF_P), rad/s
          6     1.03359416244E-005                                                     F               2         First time derivative of Platform yaw rotation DOF (internal DOF index = DOF_Y), rad/s
          7     6.02427124977E-003                                                     F               2         First time derivative of 1st tower fore-aft bending mode DOF (internal DOF index = DOF_TFA1), m/s
          8    -2.01184991747E-002                                                     F               2         First time derivative of 1st tower side-to-side bending mode DOF (internal DOF index = DOF_TSS1), m/s
          9     1.45501044244E-005                                                     F               2         First time derivative of 2nd tower fore-aft bending mode DOF (internal DOF index = DOF_TFA2), m/s
         10     1.40120973811E-005                                                     F               2         First time derivative of 2nd tower side-to-side bending mode DOF (internal DOF index = DOF_TSS2), m/s
         11     7.92061388493E-001                                                     F               2         First time derivative of Variable speed generator DOF (internal DOF index = DOF_GeAz), rad/s
         12     1.08692925423E-002                                                     F               2         First time derivative of First time derivative of Platform horizontal surge translation DOF (internal DOF index = DOF_Sg), m/s/s
         13    -1.42146577127E-003                                                     F               2         First time derivative of First time derivative of Platform horizontal sway translation DOF (internal DOF index = DOF_Sw), m/s/s
         14    -1.60751328804E-003                                                     F               2         First time derivative of First time derivative of Platform vertical heave translation DOF (internal DOF index = DOF_Hv), m/s/s
         15     9.95699883788E-005                                                     F               2         First time derivative of First time derivative of Platform roll tilt rotation DOF (internal DOF index = DOF_R), rad/s/s
         16     6.06064510066E-004                                                     F               2         First time derivative of First time derivative of Platform pitch tilt rotation DOF (internal DOF index = DOF_P), rad/s/s
         17     4.70876038889E-005                                                     F               2         First time derivative of First time derivative of Platform yaw rotation DOF (internal DOF index = DOF_Y), rad/s/s
         18    -1.40463799238E-001                                                     F               2         First time derivative of First time derivative of 1st tower fore-aft bending mode DOF (internal DOF index = DOF_TFA1), m/s/s
         19    -2.16355435550E-002                                                     F               2         First time derivative of First time derivative of 1st tower side-to-side bending mode DOF (internal DOF index = DOF_TSS1), m/s/s
         20    -2.35067494214E-003                                                     F               2         First time derivative of First time derivative of 2nd tower fore-aft bending mode DOF (internal DOF index = DOF_TFA2), m/s/s
         21     5.79595689487E-006                                                     F               2         First time derivative of First time derivative of 2nd tower side-to-side bending mode DOF (internal DOF index = DOF_TSS2), m/s/s
         22     7.25349760614E-004                                                     F               2         First time derivative of First time derivative of Variable speed generator DOF (internal DOF index = DOF_GeAz), rad/s/s

Order of inputs:
     Column   Operating Point                                                   Rotating Frame? Derivative Order Description
   ---------- ---------------                                                   --------------- ---------------- -----------
          1     3.57273712158E+002                                                     F               0         Blade 1 X force, node 1, N
          2    -9.94604051113E-001                                                     F               0         Blade 1 Y force, node 1, N
          3    -8.32060623169E+001                                                     F               0         Blade 1 Z force, node 1, N
          4     1.39369445801E+003                                                     F               0         Blade 1 X force, node 2, N
          5     5.57471799850E+000                                                     F               0         Blade 1 Y force, node 2, N
          6    -2.36458084106E+002                                                     F               0         Blade 1 Z force, node 2, N
          7     1.54208508301E+003                                                     F               0         Blade 1 X force, node 3, N
          8     2.77801437378E+001                                                     F               0         Blade 1 Y force, node 3, N
          9    -6.02005691528E+001                                                     F               0         Blade 1 Z force, node 3, N
         10     1.83525646973E+003                                                     F               0         Blade 1 X force, node 4, N
         11     5.08433494568E+001                                                     F               0         Blade 1 Y force, node 4, N
         12     9.40904464722E+001                                                     F               0         Blade 1 Z force, node 4, N
         13     2.12844311523E+003                                                     F               0         Blade 1 X force, node 5, N
         14     7.39071578979E+001                                                     F               0         Blade 1 Y force, node 5, N
         15     2.48383773804E+002                                                     F               0         Blade 1 Z force, node 5, N
         16     2.42161743164E+003                                                     F               0         Blade 1 X force, node 6, N
         17     9.69706115723E+001                                                     F               0         Blade 1 Y force, node 6, N
         18     4.02676452637E+002                                                     F               0         Blade 1 Z force, node 6, N
         19     2.71477343750E+003                                                     F               0         Blade 1 X force, node 7, N
         20     1.20033264160E+002                                                     F               0         Blade 1 Y force, node 7, N
         21     5.56965454102E+002                                                     F               0         Blade 1 Z force, node 7, N
         22     3.00794482422E+003                                                     F               0         Blade 1 X force, node 8, N
         23     1.43096481323E+002                                                     F               0         Blade 1 Y force, node 8, N
         24     7.11256408691E+002                                                     F               0         Blade 1 Z force, node 8, N
         25     3.30111621094E+003                                                     F               0         Blade 1 X force, node 9, N
         26     1.66159698486E+002                                                     F               0         Blade 1 Y force, node 9, N
         27     8.65547485352E+002                                                     F               0         Blade 1 Z force, node 9, N
         28     3.59428710938E+003                                                     F               0         Blade 1 X force, node 10, N
         29     1.89222900391E+002                                                     F               0         Blade 1 Y force, node 10, N
         30     1.01983862305E+003                                                     F               0         Blade 1 Z force, node 10, N
         31     3.88745849609E+003                                                     F               0         Blade 1 X force, node 11, N
         32     2.12286117554E+002                                                     F               0         Blade 1 Y force, node 11, N
         33     1.17412951660E+003                                                     F               0         Blade 1 Z force, node 11, N
         34     4.18065917969E+003                                                     F               0         Blade 1 X force, node 12, N
         35     2.35350967407E+002                                                     F               0         Blade 1 Y force, node 12, N
         36     1.32843017578E+003                                                     F               0         Blade 1 Z force, node 12, N
         37     4.47383300781E+003                                                     F               0         Blade 1 X force, node 13, N
         38     2.58414398193E+002                                                     F               0         Blade 1 Y force, node 13, N
         39     1.48272277832E+003                                                     F               0         Blade 1 Z force, node 13, N
         40     4.76697607422E+003                                                     F               0         Blade 1 X force, node 14, N
         41     2.81476043701E+002                                                     F               0         Blade 1 Y force, node 14, N
         42     1.63700463867E+003                                                     F               0         Blade 1 Z force, node 14, N
         43     5.06018115234E+003                                                     F               0         Blade 1 X force, node 15, N
         44     3.04541290283E+002                                                     F               0         Blade 1 Y force, node 15, N
         45     1.79130773926E+003                                                     F               0         Blade 1 Z force, node 15, N
         46     5.35331738281E+003                                                     F               0         Blade 1 X force, node 16, N
         47     3.27602386475E+002                                                     F               0         Blade 1 Y force, node 16, N
         48     1.94558618164E+003                                                     F               0         Blade 1 Z force, node 16, N
         49     6.52408886719E+003                                                     F               0         Blade 1 X force, node 17, N
         50     4.04403717041E+002                                                     F               0         Blade 1 Y force, node 17, N
         51     2.41913037109E+003                                                     F               0         Blade 1 Z force, node 17, N
         52     4.78915332031E+003                                                     F               0         Blade 1 X force, node 18, N
         53     2.92618743896E+002                                                     F               0         Blade 1 Y force, node 18, N
         54     1.73627136230E+003                                                     F               0         Blade 1 Z force, node 18, N
         55     5.61536865234E+003                                                     F               0         Blade 1 X force, node 19, N
         56     3.34857269287E+002                                                     F               0         Blade 1 Y force, node 19, N
         57     1.95897607422E+003                                                     F               0         Blade 1 Z force, node 19, N
         58     4.58166894531E+003                                                     F               0         Blade 1 X force, node 20, N
         59     2.66422363281E+002                                                     F               0         Blade 1 Y force, node 20, N
         60     1.53504516602E+003                                                     F               0         Blade 1 Z force, node 20, N
         61     6.42846826172E+003                                                     F               0         Blade 1 X force, node 21, N
         62     3.63618072510E+002                                                     F               0         Blade 1 Y force, node 21, N
         63     2.05877539062E+003                                                     F               0         Blade 1 Z force, node 21, N
         64     5.39150292969E+003                                                     F               0         Blade 1 X force, node 22, N
         65     2.98338470459E+002                                                     F               0         Blade 1 Y force, node 22, N
         66     1.66492907715E+003                                                     F               0         Blade 1 Z force, node 22, N
         67     5.28433251953E+003                                                     F               0         Blade 1 X force, node 23, N
         68     2.86362091064E+002                                                     F               0         Blade 1 Y force, node 23, N
         69     1.57548144531E+003                                                     F               0         Blade 1 Z force, node 23, N
         70     5.28760205078E+003                                                     F               0         Blade 1 X force, node 24, N
         71     2.81659271240E+002                                                     F               0         Blade 1 Y force, node 24, N
         72     1.53097192383E+003                                                     F               0         Blade 1 Z force, node 24, N
         73     5.27018115234E+003                                                     F               0         Blade 1 X force, node 25, N
         74     2.81163940430E+002                                                     F               0         Blade 1 Y force, node 25, N
         75     1.52996032715E+003                                                     F               0         Blade 1 Z force, node 25, N
         76     5.30059326172E+003                                                     F               0         Blade 1 X force, node 26, N
         77     2.84505676270E+002                                                     F               0         Blade 1 Y force, node 26, N
         78     1.55481335449E+003                                                     F               0         Blade 1 Z force, node 26, N
         79     6.20398681641E+003                                                     F               0         Blade 1 X force, node 27, N
         80     3.35168792725E+002                                                     F               0         Blade 1 Y force, node 27, N
         81     1.84006774902E+003                                                     F               0         Blade 1 Z force, node 27, N
         82     4.52555664062E+003                                                     F               0         Blade 1 X force, node 28, N
         83     2.46476547241E+002                                                     F               0         Blade 1 Y force, node 28, N
         84     1.36075170898E+003                                                     F               0         Blade 1 Z force, node 28, N
         85     5.47703466797E+003                                                     F               0         Blade 1 X force, node 29, N
         86     3.00515228271E+002                                                     F               0         Blade 1 Y force, node 29, N
         87     1.66751708984E+003                                                     F               0         Blade 1 Z force, node 29, N
         88     4.61189990234E+003                                                     F               0         Blade 1 X force, node 30, N
         89     2.54857391357E+002                                                     F               0         Blade 1 Y force, node 30, N
         90     1.42099682617E+003                                                     F               0         Blade 1 Z force, node 30, N
         91     6.78796289062E+003                                                     F               0         Blade 1 X force, node 31, N
         92     3.80550537109E+002                                                     F               0         Blade 1 Y force, node 31, N
         93     2.14219848633E+003                                                     F               0         Blade 1 Z force, node 31, N
         94     6.40920263672E+003                                                     F               0         Blade 1 X force, node 32, N
         95     3.67724975586E+002                                                     F               0         Blade 1 Y force, node 32, N
         96     2.10103955078E+003                                                     F               0         Blade 1 Z force, node 32, N
         97     7.00401562500E+003                                                     F               0         Blade 1 X force, node 33, N
         98     4.09314178467E+002                                                     F               0         Blade 1 Y force, node 33, N
         99     2.36558032227E+003                                                     F               0         Blade 1 Z force, node 33, N
        100     7.53805273438E+003                                                     F               0         Blade 1 X force, node 34, N
        101     4.45493530273E+002                                                     F               0         Blade 1 Y force, node 34, N
        102     2.59227465820E+003                                                     F               0         Blade 1 Z force, node 34, N
        103     7.82181250000E+003                                                     F               0         Blade 1 X force, node 35, N
        104     4.59615356445E+002                                                     F               0         Blade 1 Y force, node 35, N
        105     2.66517529297E+003                                                     F               0         Blade 1 Z force, node 35, N
        106     8.04094677734E+003                                                     F               0         Blade 1 X force, node 36, N
        107     4.68102569580E+002                                                     F               0         Blade 1 Y force, node 36, N
        108     2.69893115234E+003                                                     F               0         Blade 1 Z force, node 36, N
        109     9.65594628906E+003                                                     F               0         Blade 1 X force, node 37, N
        110     5.56575195312E+002                                                     F               0         Blade 1 Y force, node 37, N
        111     3.18932641602E+003                                                     F               0         Blade 1 Z force, node 37, N
        112     6.96601757812E+003                                                     F               0         Blade 1 X force, node 38, N
        113     3.95942565918E+002                                                     F               0         Blade 1 Y force, node 38, N
        114     2.24881225586E+003                                                     F               0         Blade 1 Z force, node 38, N
        115     8.42271582031E+003                                                     F               0         Blade 1 X force, node 39, N
        116     4.72145294189E+002                                                     F               0         Blade 1 Y force, node 39, N
        117     2.65760668945E+003                                                     F               0         Blade 1 Z force, node 39, N
        118     7.08730224609E+003                                                     F               0         Blade 1 X force, node 40, N
        119     3.91778198242E+002                                                     F               0         Blade 1 Y force, node 40, N
        120     2.18490014648E+003                                                     F               0         Blade 1 Z force, node 40, N
        121     9.90676464844E+003                                                     F               0         Blade 1 X force, node 41, N
        122     5.38276489258E+002                                                     F               0         Blade 1 Y force, node 41, N
        123     2.96686889648E+003                                                     F               0         Blade 1 Z force, node 41, N
        124     8.54956835938E+003                                                     F               0         Blade 1 X force, node 42, N
        125     4.55686584473E+002                                                     F               0         Blade 1 Y force, node 42, N
        126     2.47795141602E+003                                                     F               0         Blade 1 Z force, node 42, N
        127     8.57887304688E+003                                                     F               0         Blade 1 X force, node 43, N
        128     4.48880432129E+002                                                     F               0         Blade 1 Y force, node 43, N
        129     2.40844970703E+003                                                     F               0         Blade 1 Z force, node 43, N
        130     8.64724218750E+003                                                     F               0         Blade 1 X force, node 44, N
        131     4.43994293213E+002                                                     F               0         Blade 1 Y force, node 44, N
        132     2.34876000977E+003                                                     F               0         Blade 1 Z force, node 44, N
        133     8.55403808594E+003                                                     F               0         Blade 1 X force, node 45, N
        134     4.30565765381E+002                                                     F               0         Blade 1 Y force, node 45, N