
Linearized model: Predictions were generated on 12-Jan-2024 at 09:28:28 using OpenFAST, compiled as a 64-bit application using single precision at commit v3.5.1
 linked with  NWTC Subroutine Library; ElastoDyn; InflowWind; AeroDyn; ServoDyn; HydroDyn; MAP++ (<1.20.10>, <Oct-20-2023>)

Description from the FAST input file: CCT-9 Campign 4 model. Input files to be run with OpenFAST 3.5.0. GitHub branch from Lu Wang (https://github.com/luwang00/openfast/tree/dev) compiled on March 7, 2023.

Simulation information:
   Simulation time:                   501.9750 s
   Rotor Speed:                         0.8769 rad/s
   Azimuth:                             5.5885 rad
   Wind Speed:                         10.0000 m/s
   Number of continuous states:         0
   Number of discrete states:           0
   Number of constraint states:         0
   Number of inputs:                 1746
   Number of outputs:                   4
   Jacobians included in this file?    No

Order of inputs:
     Column   Operating Point                     Rotating Frame? Derivative Order Description
   ---------- ---------------                     --------------- ---------------- -----------
          1    1.101E+01                                 F               0         Tower X translation displacement, node 1, m
          2   -1.230E+00                                 F               0         Tower Y translation displacement, node 1, m
          3   -3.283E-01                                 F               0         Tower Z translation displacement, node 1, m
          4    1.248E+01                                 F               0         Tower X translation displacement, node 2, m
          5   -1.813E+00                                 F               0         Tower Y translation displacement, node 2, m
          6   -4.298E-01                                 F               0         Tower Z translation displacement, node 2, m
          7    1.397E+01                                 F               0         Tower X translation displacement, node 3, m
          8   -2.401E+00                                 F               0         Tower Y translation displacement, node 3, m
          9   -5.345E-01                                 F               0         Tower Z translation displacement, node 3, m
         10    1.549E+01                                 F               0         Tower X translation displacement, node 4, m
         11   -2.995E+00                                 F               0         Tower Y translation displacement, node 4, m
         12   -6.417E-01                                 F               0         Tower Z translation displacement, node 4, m
         13    1.701E+01                                 F               0         Tower X translation displacement, node 5, m
         14   -3.592E+00                                 F               0         Tower Y translation displacement, node 5, m
         15   -7.510E-01                                 F               0         Tower Z translation displacement, node 5, m
         16    1.855E+01                                 F               0         Tower X translation displacement, node 6, m
         17   -4.192E+00                                 F               0         Tower Y translation displacement, node 6, m
         18   -8.620E-01                                 F               0         Tower Z translation displacement, node 6, m
         19    2.010E+01                                 F               0         Tower X translation displacement, node 7, m
         20   -4.795E+00                                 F               0         Tower Y translation displacement, node 7, m
         21   -9.743E-01                                 F               0         Tower Z translation displacement, node 7, m
         22    2.166E+01                                 F               0         Tower X translation displacement, node 8, m
         23   -5.400E+00                                 F               0         Tower Y translation displacement, node 8, m
         24   -1.088E+00                                 F               0         Tower Z translation displacement, node 8, m
         25    2.322E+01                                 F               0         Tower X translation displacement, node 9, m
         26   -6.006E+00                                 F               0         Tower Y translation displacement, node 9, m
         27   -1.202E+00                                 F               0         Tower Z translation displacement, node 9, m
         28    2.478E+01                                 F               0         Tower X translation displacement, node 10, m
         29   -6.614E+00                                 F               0         Tower Y translation displacement, node 10, m
         30   -1.316E+00                                 F               0         Tower Z translation displacement, node 10, m
         31    2.635E+01                                 F               0         Tower X translation displacement, node 11, m
         32   -7.222E+00                                 F               0         Tower Y translation displacement, node 11, m
         33   -1.431E+00                                 F               0         Tower Z translation displacement, node 11, m
         34    9.930E-01,  9.751E-03, -1.178E-01         F               0         Tower X orientation angle, node 1, rad
         35   -4.136E-03,  9.988E-01,  4.783E-02         F               0         Tower Y orientation angle, node 1, rad
         36    1.181E-01, -4.701E-02,  9.919E-01         F               0         Tower Z orientation angle, node 1, rad
         37    9.928E-01,  9.839E-03, -1.196E-01         F               0         Tower X orientation angle, node 2, rad
         38   -4.083E-03,  9.988E-01,  4.828E-02         F               0         Tower Y orientation angle, node 2, rad
         39    1.200E-01, -4.744E-02,  9.916E-01         F               0         Tower Z orientation angle, node 2, rad
         40    9.926E-01,  9.918E-03, -1.213E-01         F               0         Tower X orientation angle, node 3, rad
         41   -4.034E-03,  9.988E-01,  4.867E-02         F               0         Tower Y orientation angle, node 3, rad
         42    1.216E-01, -4.782E-02,  9.914E-01         F               0         Tower Z orientation angle, node 3, rad
         43    9.924E-01,  9.985E-03, -1.226E-01         F               0         Tower X orientation angle, node 4, rad
         44   -3.991E-03,  9.988E-01,  4.902E-02         F               0         Tower Y orientation angle, node 4, rad
         45    1.230E-01, -4.816E-02,  9.912E-01         F               0         Tower Z orientation angle, node 4, rad
         46    9.923E-01,  1.004E-02, -1.238E-01         F               0         Tower X orientation angle, node 5, rad
         47   -3.954E-03,  9.988E-01,  4.932E-02         F               0         Tower Y orientation angle, node 5, rad
         48    1.241E-01, -4.845E-02,  9.911E-01         F               0         Tower Z orientation angle, node 5, rad
         49    9.921E-01,  1.008E-02, -1.247E-01         F               0         Tower X orientation angle, node 6, rad
         50   -3.923E-03,  9.988E-01,  4.957E-02         F               0         Tower Y orientation angle, node 6, rad
         51    1.250E-01, -4.869E-02,  9.910E-01         F               0         Tower Z orientation angle, node 6, rad
         52    9.921E-01,  1.012E-02, -1.253E-01         F               0         Tower X orientation angle, node 7, rad
         53   -3.898E-03,  9.988E-01,  4.977E-02         F               0         Tower Y orientation angle, node 7, rad
         54    1.257E-01, -4.889E-02,  9.909E-01         F               0         Tower Z orientation angle, node 7, rad
         55    9.920E-01,  1.014E-02, -1.258E-01         F               0         Tower X orientation angle, node 8, rad
         56   -3.878E-03,  9.987E-01,  4.992E-02         F               0         Tower Y orientation angle, node 8, rad
         57    1.262E-01, -4.904E-02,  9.908E-01         F               0         Tower Z orientation angle, node 8, rad
         58    9.920E-01,  1.016E-02, -1.262E-01         F               0         Tower X orientation angle, node 9, rad
         59   -3.864E-03,  9.987E-01,  5.004E-02         F               0         Tower Y orientation angle, node 9, rad
         60    1.265E-01, -4.915E-02,  9.907E-01         F               0         Tower Z orientation angle, node 9, rad
         61    9.919E-01,  1.017E-02, -1.264E-01         F               0         Tower X orientation angle, node 10, rad
         62   -3.854E-03,  9.987E-01,  5.011E-02         F               0         Tower Y orientation angle, node 10, rad
         63    1.267E-01, -4.922E-02,  9.907E-01         F               0         Tower Z orientation angle, node 10, rad
         64    9.919E-01,  1.018E-02, -1.265E-01         F               0         Tower X orientation angle, node 11, rad
         65   -3.849E-03,  9.987E-01,  5.015E-02         F               0         Tower Y orientation angle, node 11, rad
         66    1.268E-01, -4.926E-02,  9.907E-01         F               0         Tower Z orientation angle, node 11, rad
         67   -4.489E-03                                 F               0         Tower X translation velocity, node 1, m/s
         68   -3.632E-03                                 F               0         Tower Y translation velocity, node 1, m/s
         69   -6.943E-05                                 F               0         Tower Z translation velocity, node 1, m/s
         70   -4.825E-03                                 F               0         Tower X translation velocity, node 2, m/s
         71   -7.294E-03                                 F               0         Tower Y translation velocity, node 2, m/s
         72   -2.034E-04                                 F               0         Tower Z translation velocity, node 2, m/s
         73   -5.165E-03                                 F               0         Tower X translation velocity, node 3, m/s
         74   -1.089E-02                                 F               0         Tower Y translation velocity, node 3, m/s
         75   -3.348E-04                                 F               0         Tower Z translation velocity, node 3, m/s
         76   -5.505E-03                                 F               0         Tower X translation velocity, node 4, m/s
         77   -1.444E-02                                 F               0         Tower Y translation velocity, node 4, m/s
         78   -4.646E-04                                 F               0         Tower Z translation velocity, node 4, m/s
         79   -5.843E-03                                 F               0         Tower X translation velocity, node 5, m/s
         80   -1.794E-02                                 F               0         Tower Y translation velocity, node 5, m/s
         81   -5.930E-04                                 F               0         Tower Z translation velocity, node 5, m/s
         82   -6.175E-03                                 F               0         Tower X translation velocity, node 6, m/s
         83   -2.139E-02                                 F               0         Tower Y translation velocity, node 6, m/s
         84   -7.207E-04                                 F               0         Tower Z translation velocity, node 6, m/s
         85   -6.501E-03                                 F               0         Tower X translation velocity, node 7, m/s
         86   -2.482E-02                                 F               0         Tower Y translation velocity, node 7, m/s
         87   -8.480E-04                                 F               0         Tower Z translation velocity, node 7, m/s
         88   -6.820E-03                                 F               0         Tower X translation velocity, node 8, m/s
         89   -2.821E-02                                 F               0         Tower Y translation velocity, node 8, m/s
         90   -9.752E-04                                 F               0         Tower Z translation velocity, node 8, m/s
         91   -7.132E-03                                 F               0         Tower X translation velocity, node 9, m/s
         92   -3.158E-02                                 F               0         Tower Y translation velocity, node 9, m/s
         93   -1.102E-03                                 F               0         Tower Z translation velocity, node 9, m/s
         94   -7.438E-03                                 F               0         Tower X translation velocity, node 10, m/s
         95   -3.494E-02                                 F               0         Tower Y translation velocity, node 10, m/s
         96   -1.230E-03                                 F               0         Tower Z translation velocity, node 10, m/s
         97   -7.739E-03                                 F               0         Tower X translation velocity, node 11, m/s
         98   -3.828E-02                                 F               0         Tower Y translation velocity, node 11, m/s
         99   -1.358E-03                                 F               0         Tower Z translation velocity, node 11, m/s
        100    2.743E+01                                 F               0         Hub X translation displacement, node 1, m
        101   -7.719E+00                                 F               0         Hub Y translation displacement, node 1, m
        102   -1.380E-01                                 F               0         Hub Z translation displacement, node 1, m
        103    9.732E-01,  1.527E-02, -2.294E-01         F               0         Hub X orientation angle, node 1, rad
        104   -1.501E-01,  7.980E-01, -5.837E-01         F               0         Hub Y orientation angle, node 1, rad
        105    1.741E-01,  6.025E-01,  7.789E-01         F               0         Hub Z orientation angle, node 1, rad
        106    8.537E-01                                 F               0         Hub X rotation velocity, node 1, rad/s
        107    1.336E-02                                 F               0         Hub Y rotation velocity, node 1, rad/s
        108   -2.011E-01                                 F               0         Hub Z rotation velocity, node 1, rad/s
        109    9.772E-01, -8.410E-03, -2.119E-01         F               0         Blade root 1 X orientation angle, node 1, rad
        110   -1.211E-01,  7.981E-01, -5.903E-01         F               0         Blade root 1 Y orientation angle, node 1, rad
        111    1.741E-01,  6.025E-01,  7.789E-01         F               0         Blade root 1 Z orientation angle, node 1, rad
        112    9.661E-01,  1.162E-02, -2.579E-01         F               0         Blade root 2 X orientation angle, node 1, rad
        113    2.546E-01,  1.232E-01,  9.592E-01         F               0         Blade root 2 Y orientation angle, node 1, rad
        114    4.293E-02, -9.923E-01,  1.161E-01         F               0         Blade root 2 Z orientation angle, node 1, rad
        115    9.750E-01,  4.258E-02, -2.179E-01         F               0         Blade root 3 X orientation angle, node 1, rad
        116   -4.683E-02, -9.199E-01, -3.893E-01         F               0         Blade root 3 Y orientation angle, node 1, rad
        117   -2.170E-01,  3.898E-01, -8.950E-01         F               0         Blade root 3 Z orientation angle, node 1, rad
        118    2.782E+01                                 F               0         Blade 1 X translation displacement, node 1, m
        119   -4.381E+00                                 F               0         Blade 1 Y translation displacement, node 1, m
        120   -1.333E+00                                 F               0         Blade 1 Z translation displacement, node 1, m
        121    2.791E+01                                 F               0         Blade 1 X translation displacement, node 2, m
        122   -3.577E+00                                 F               0         Blade 1 Y translation displacement, node 2, m
        123   -1.621E+00                                 F               0         Blade 1 Z translation displacement, node 2, m
        124    2.918E+01                                 F               0         Blade 1 X translation displacement, node 3, m
        125    7.361E+00                                 F               0         Blade 1 Y translation displacement, node 3, m
        126   -5.535E+00                                 F               0         Blade 1 Z translation displacement, node 3, m
        127    2.944E+01                                 F               0         Blade 1 X translation displacement, node 4, m
        128    9.691E+00                                 F               0         Blade 1 Y translation displacement, node 4, m
        129   -6.369E+00                                 F               0         Blade 1 Z translation displacement, node 4, m
        130    2.971E+01                                 F               0         Blade 1 X translation displacement, node 5, m
        131    1.202E+01                                 F               0         Blade 1 Y translation displacement, node 5, m
        132   -7.203E+00                                 F               0         Blade 1 Z translation displacement, node 5, m
        133    2.998E+01                                 F               0         Blade 1 X translation displacement, node 6, m
        134    1.435E+01                                 F               0         Blade 1 Y translation displacement, node 6, m
        135   -8.037E+00                                 F               0         Blade 1 Z translation displacement, node 6, m
        136    3.025E+01                                 F               0         Blade 1 X translation displacement, node 7, m
        137    1.668E+01                                 F               0         Blade 1 Y translation displacement, node 7, m
        138   -8.871E+00                                 F               0         Blade 1 Z translation displacement, node 7, m
        139    3.052E+01                                 F               0         Blade 1 X translation displacement, node 8, m
        140    1.901E+01                                 F               0         Blade 1 Y translation displacement, node 8, m
        141   -9.705E+00                                 F               0         Blade 1 Z translation displacement, node 8, m
        142    3.079E+01                                 F               0         Blade 1 X translation displacement, node 9, m
        143    2.134E+01                                 F               0         Blade 1 Y translation displacement, node 9, m
        144   -1.054E+01                                 F               0         Blade 1 Z translation displacement, node 9, m
        145    3.106E+01                                 F               0         Blade 1 X translation displacement, node 10, m
        146    2.367E+01                                 F               0         Blade 1 Y translation displacement, node 10, m
        147   -1.137E+01                                 F               0         Blade 1 Z translation displacement, node 10, m
        148    3.133E+01                                 F               0         Blade 1 X translation displacement, node 11, m
        149    2.600E+01                                 F               0         Blade 1 Y translation displacement, node 11, m
        150   -1.221E+01                                 F               0         Blade 1 Z translation displacement, node 11, m
        151    3.160E+01                                 F               0         Blade 1 X translation displacement, node 12, m
        152    2.833E+01                                 F               0         Blade 1 Y translation displacement, node 12, m
        153   -1.304E+01                                 F               0         Blade 1 Z translation displacement, node 12, m
        154    3.187E+01                                 F               0         Blade 1 X translation displacement, node 13, m
        155    3.066E+01                                 F               0         Blade 1 Y translation displacement, node 13, m
        156   -1.388E+01                                 F               0         Blade 1 Z translation displacement, node 13, m
        157    3.214E+01                                 F               0         Blade 1 X translation displacement, node 14, m
        158    3.299E+01                                 F               0         Blade 1 Y translation displacement, node 14, m
        159   -1.471E+01                                 F               0         Blade 1 Z translation displacement, node 14, m
        160    3.240E+01                                 F               0         Blade 1 X translation displacement, node 15, m
        161    3.533E+01                                 F               0         Blade 1 Y translation displacement, node 15, m
        162   -1.554E+01                                 F               0         Blade 1 Z translation displacement, node 15, m
        163    3.267E+01                                 F               0         Blade 1 X translation displacement, node 16, m
        164    3.766E+01                                 F               0         Blade 1 Y translation displacement, node 16, m
        165   -1.638E+01                                 F               0         Blade 1 Z translation displacement, node 16, m
        166    3.294E+01                                 F               0         Blade 1 X translation displacement, node 17, m
        167    3.999E+01                                 F               0         Blade 1 Y translation displacement, node 17, m
        168   -1.721E+01                                 F               0         Blade 1 Z translation displacement, node 17, m
        169    3.321E+01                                 F               0         Blade 1 X translation displacement, node 18, m
        170    4.232E+01                                 F               0         Blade 1 Y translation displacement, node 18, m
        171   -1.805E+01                                 F               0         Blade 1 Z translation displacement, node 18, m
        172    3.348E+01                                 F               0         Blade 1 X translation displacement, node 19, m
        173    4.465E+01                                 F               0         Blade 1 Y translation displacement, node 19, m
        174   -1.888E+01                                 F               0         Blade 1 Z translation displacement, node 19, m
        175    3.375E+01                                 F               0         Blade 1 X translation displacement, node 20, m
        176    4.698E+01                                 F               0         Blade 1 Y translation displacement, node 20, m
        177   -1.971E+01                                 F               0         Blade 1 Z translation displacement, node 20, m
        178    3.402E+01                                 F               0         Blade 1 X translation displacement, node 21, m
        179    4.931E+01                                 F               0         Blade 1 Y translation displacement, node 21, m
        180   -2.055E+01                                 F               0         Blade 1 Z translation displacement, node 21, m
        181    3.429E+01                                 F               0         Blade 1 X translation displacement, node 22, m
        182    5.164E+01                                 F               0         Blade 1 Y translation displacement, node 22, m
        183   -2.138E+01                                 F               0         Blade 1 Z translation displacement, node 22, m
        184    3.456E+01                                 F               0         Blade 1 X translation displacement, node 23, m
        185    5.397E+01                                 F               0         Blade 1 Y translation displacement, node 23, m
        186   -2.222E+01                                 F               0         Blade 1 Z translation displacement, node 23, m
        187    3.483E+01                                 F               0         Blade 1 X translation displacement, node 24, m
        188    5.630E+01                                 F               0         Blade 1 Y translation displacement, node 24, m
        189   -2.305E+01                                 F               0         Blade 1 Z translation displacement, node 24, m
        190    3.510E+01                                 F               0         Blade 1 X translation displacement, node 25, m
        191    5.863E+01                                 F               0         Blade 1 Y translation displacement, node 25, m
        192   -2.388E+01                                 F               0         Blade 1 Z translation displacement, node 25, m
        193    3.536E+01                                 F               0         Blade 1 X translation displacement, node 26, m
        194    6.096E+01                                 F               0         Blade 1 Y translation displacement, node 26, m
        195   -2.472E+01                                 F               0         Blade 1 Z translation displacement, node 26, m
        196    3.563E+01                                 F               0         Blade 1 X translation displacement, node 27, m
        197    6.329E+01                                 F               0         Blade 1 Y translation displacement, node 27, m
        198   -2.555E+01                                 F               0         Blade 1 Z translation displacement, node 27, m
        199    3.586E+01                                 F               0         Blade 1 X translation displacement, node 28, m
        200    6.527E+01                                 F               0         Blade 1 Y translation displacement, node 28, m
        201   -2.626E+01                                 F               0         Blade 1 Z translation displacement, node 28, m
        202    9.250E-01, -3.714E-01,  8.055E-02         F               0         Blade 1 X orientation angle, node 1, rad
        203    3.378E-01,  7.064E-01, -6.220E-01         F               0         Blade 1 Y orientation angle, node 1, rad
        204    1.741E-01,  6.025E-01,  7.789E-01         F               0         Blade 1 Z orientation angle, node 1, rad
        205    9.250E-01, -3.714E-01,  8.055E-02         F               0         Blade 1 X orientation angle, node 2, rad
        206    3.378E-01,  7.064E-01, -6.220E-01         F               0         Blade 1 Y orientation angle, node 2, rad
        207    1.741E-01,  6.025E-01,  7.789E-01         F               0         Blade 1 Z orientation angle, node 2, rad
        208    9.787E-01, -1.934E-01, -6.916E-02         F               0         Blade 1 X orientation angle, node 3, rad
        209    1.090E-01,  7.743E-01, -6.234E-01         F               0         Blade 1 Y orientation angle, node 3, rad
        210    1.741E-01,  6.025E-01,  7.789E-01         F               0         Blade 1 Z orientation angle, node 3, rad
        211    9.824E-01, -1.605E-01, -9.542E-02         F               0         Blade 1 X orientation angle, node 4, rad
        212    6.754E-02,  7.818E-01, -6.199E-01         F               0         Blade 1 Y orientation angle, node 4, rad
        213    1.741E-01,  6.025E-01,  7.789E-01         F               0         Blade 1 Z orientation angle, node 4, rad
        214    9.841E-01, -1.345E-01, -1.159E-01         F               0         Blade 1 X orientation angle, node 5, rad
        215    3.493E-02,  7.867E-01, -6.164E-01         F               0         Blade 1 Y orientation angle, node 5, rad
        216    1.741E-01,  6.025E-01,  7.789E-01         F               0         Blade 1 Z orientation angle, node 5, rad
        217    9.847E-01, -1.136E-01, -1.322E-01         F               0         Blade 1 X orientation angle, node 6, rad
        218    8.818E-03,  7.900E-01, -6.131E-01         F               0         Blade 1 Y orientation angle, node 6, rad
        219    1.741E-01,  6.025E-01,  7.789E-01         F               0         Blade 1 Z orientation angle, node 6, rad
        220    9.846E-01, -9.635E-02, -1.456E-01         F               0         Blade 1 X orientation angle, node 7, rad
        221   -1.267E-02,  7.923E-01, -6.101E-01         F               0         Blade 1 Y orientation angle, node 7, rad
        222    1.741E-01,  6.025E-01,  7.789E-01         F               0         Blade 1 Z orientation angle, node 7, rad
        223    9.843E-01, -8.195E-02, -1.566E-01         F               0         Blade 1 X orientation angle, node 8, rad
        224   -3.053E-02,  7.939E-01, -6.073E-01         F               0         Blade 1 Y orientation angle, node 8, rad
        225    1.741E-01,  6.025E-01,  7.789E-01         F               0         Blade 1 Z orientation angle, node 8, rad
        226    9.837E-01, -6.975E-02, -1.659E-01         F               0         Blade 1 X orientation angle, node 9, rad
        227   -4.565E-02,  7.950E-01, -6.048E-01         F               0         Blade 1 Y orientation angle, node 9, rad