
Linearized model: Predictions were generated on 13-Feb-2024 at 12:12:09 using OpenFAST, compiled as a 64-bit application using single precision at commit v3.5.1
 linked with  NWTC Subroutine Library; ElastoDyn; InflowWind; AeroDyn; ServoDyn; HydroDyn; MAP++ (<1.20.10>, <Oct-20-2023>)

Description from the FAST input file: CCT-9 Campign 4 model. Input files to be run with OpenFAST 3.5.0. GitHub branch from Lu Wang (https://github.com/luwang00/openfast/tree/dev) compiled on March 7, 2023.

Simulation information:
   Simulation time:                   772.6500 s
   Rotor Speed:                         0.7914 rad/s
   Azimuth:                             1.7535 rad
   Wind Speed:                         24.0000 m/s
   Number of continuous states:         0
   Number of discrete states:           0
   Number of constraint states:         0
   Number of inputs:                 1746
   Number of outputs:                   4
   Jacobians included in this file?    No

Order of inputs:
     Column   Operating Point                                                   Rotating Frame? Derivative Order Description
   ---------- ---------------                                                   --------------- ---------------- -----------
          1     8.55686759949E+000                                                     F               0         Tower X translation displacement, node 1, m
          2    -1.82601153851E+000                                                     F               0         Tower Y translation displacement, node 1, m
          3    -2.14290514588E-001                                                     F               0         Tower Z translation displacement, node 1, m
          4     9.73099899292E+000                                                     F               0         Tower X translation displacement, node 2, m
          5    -2.50220561028E+000                                                     F               0         Tower Y translation displacement, node 2, m
          6    -2.88813203573E-001                                                     F               0         Tower Z translation displacement, node 2, m
          7     1.09230480194E+001                                                     F               0         Tower X translation displacement, node 3, m
          8    -3.18631052971E+000                                                     F               0         Tower Y translation displacement, node 3, m
          9    -3.65496426821E-001                                                     F               0         Tower Z translation displacement, node 3, m
         10     1.21284923553E+001                                                     F               0         Tower X translation displacement, node 4, m
         11    -3.87692141533E+000                                                     F               0         Tower Y translation displacement, node 4, m
         12    -4.43851709366E-001                                                     F               0         Tower Z translation displacement, node 4, m
         13     1.33448047638E+001                                                     F               0         Tower X translation displacement, node 5, m
         14    -4.57340908051E+000                                                     F               0         Tower Y translation displacement, node 5, m
         15    -5.23607969284E-001                                                     F               0         Tower Z translation displacement, node 5, m
         16     1.45696296692E+001                                                     F               0         Tower X translation displacement, node 6, m
         17    -5.27510881424E+000                                                     F               0         Tower Y translation displacement, node 6, m
         18    -6.04518413544E-001                                                     F               0         Tower Z translation displacement, node 6, m
         19     1.58004446030E+001                                                     F               0         Tower X translation displacement, node 7, m
         20    -5.98099136353E+000                                                     F               0         Tower Y translation displacement, node 7, m
         21    -6.86253488064E-001                                                     F               0         Tower Z translation displacement, node 7, m
         22     1.70360488892E+001                                                     F               0         Tower X translation displacement, node 8, m
         23    -6.69072198868E+000                                                     F               0         Tower Y translation displacement, node 8, m
         24    -7.68703997135E-001                                                     F               0         Tower Z translation displacement, node 8, m
         25     1.82748737335E+001                                                     F               0         Tower X translation displacement, node 9, m
         26    -7.40350389481E+000                                                     F               0         Tower Y translation displacement, node 9, m
         27    -8.51646721363E-001                                                     F               0         Tower Z translation displacement, node 9, m
         28     1.95156536102E+001                                                     F               0         Tower X translation displacement, node 10, m
         29    -8.11849117279E+000                                                     F               0         Tower Y translation displacement, node 10, m
         30    -9.34921383858E-001                                                     F               0         Tower Z translation displacement, node 10, m
         31     2.07573833466E+001                                                     F               0         Tower X translation displacement, node 11, m
         32    -8.83485889435E+000                                                     F               0         Tower Y translation displacement, node 11, m
         33    -1.01836967468E+000                                                     F               0         Tower Z translation displacement, node 11, m
         34     9.95459377766E-001,  -6.68767280877E-003,  -9.49518680573E-002         F               0         Tower X orientation angle, node 1, rad
         35     1.18212951347E-002,   9.98492181301E-001,   5.36064319313E-002         F               0         Tower Y orientation angle, node 1, rad
         36     9.44501981139E-002,  -5.44854775071E-002,   9.94037449360E-001         F               0         Tower Z orientation angle, node 1, rad
         37     9.95327711105E-001,  -6.61184452474E-003,  -9.63276922703E-002         F               0         Tower X orientation angle, node 2, rad
         38     1.18767851964E-002,   9.98460233212E-001,   5.41861802340E-002         F               0         Tower Y orientation angle, node 2, rad
         39     9.58210974932E-002,  -5.50770685077E-002,   9.93873655796E-001         F               0         Tower Z orientation angle, node 2, rad
         40     9.95212137699E-001,  -6.54545892030E-003,  -9.75191667676E-002         F               0         Tower X orientation angle, node 3, rad
         41     1.19289597496E-002,   9.98430252075E-001,   5.47242276371E-002         F               0         Tower Y orientation angle, node 3, rad
         42     9.70078855753E-002,  -5.56255169213E-002,   9.93727982044E-001         F               0         Tower Z orientation angle, node 3, rad
         43     9.95115101337E-001,  -6.48979423568E-003,  -9.85076799989E-002         F               0         Tower X orientation angle, node 4, rad
         44     1.19770560414E-002,   9.98402655125E-001,   5.52152097225E-002         F               0         Tower Y orientation angle, node 4, rad
         45     9.79919955134E-002,  -5.61253204942E-002,   9.93603289127E-001         F               0         Tower Z orientation angle, node 4, rad
         46     9.95036423206E-001,  -6.44455384463E-003,  -9.93027389050E-002         F               0         Tower X orientation angle, node 5, rad
         47     1.20206754655E-002,   9.98377561569E-001,   5.56571967900E-002         F               0         Tower Y orientation angle, node 5, rad
         48     9.87829416990E-002,  -5.65746240318E-002,   9.93499517441E-001         F               0         Tower Z orientation angle, node 5, rad
         49     9.94974851608E-001,  -6.40908628702E-003,  -9.99195501208E-002         F               0         Tower X orientation angle, node 6, rad
         50     1.20593514293E-002,   9.98355269432E-001,   5.60471490026E-002         F               0         Tower Y orientation angle, node 6, rad
         51     9.93959978223E-002,  -5.69704696536E-002,   9.93415713310E-001         F               0         Tower Z orientation angle, node 6, rad
         52     9.94930088520E-001,  -6.38312101364E-003,  -1.00366167724E-001         F               0         Tower X orientation angle, node 7, rad
         53     1.20920902118E-002,   9.98336374760E-001,   5.63763901591E-002         F               0         Tower Y orientation angle, node 7, rad
         54     9.98393371701E-002,  -5.73042035103E-002,   9.93352055550E-001         F               0         Tower Z orientation angle, node 7, rad
         55     9.94898557663E-001,  -6.36469246820E-003,  -1.00679703057E-001         F               0         Tower X orientation angle, node 8, rad
         56     1.21188685298E-002,   9.98320817947E-001,   5.66453784704E-002         F               0         Tower Y orientation angle, node 8, rad
         57     1.00150108337E-001,  -5.75765259564E-002,   9.93305027485E-001         F               0         Tower Z orientation angle, node 8, rad
         58     9.94877994061E-001,  -6.35258154944E-003,  -1.00883409381E-001         F               0         Tower X orientation angle, node 9, rad
         59     1.21392915025E-002,   9.98308897018E-001,   5.68505227566E-002         F               0         Tower Y orientation angle, node 9, rad
         60     1.00351661444E-001,  -5.77839873731E-002,   9.93272662163E-001         F               0         Tower Z orientation angle, node 9, rad
         61     9.94866192341E-001,  -6.34557567537E-003,  -1.00999824703E-001         F               0         Tower X orientation angle, node 10, rad
         62     1.21530639008E-002,   9.98300850391E-001,   5.69890066981E-002         F               0         Tower Y orientation angle, node 10, rad
         63     1.00466579199E-001,  -5.79238943756E-002,   9.93252873421E-001         F               0         Tower Z orientation angle, node 10, rad
         64     9.94860708714E-001,  -6.34224666283E-003,  -1.01054407656E-001         F               0         Tower X orientation angle, node 11, rad
         65     1.21607463807E-002,   9.98296320438E-001,   5.70663586259E-002         F               0         Tower Y orientation angle, node 11, rad
         66     1.00520312786E-001,  -5.80019727349E-002,   9.93242859840E-001         F               0         Tower Z orientation angle, node 11, rad
         67    -7.70793808624E-003                                                     F               0         Tower X translation velocity, node 1, m/s
         68     4.33511938900E-003                                                     F               0         Tower Y translation velocity, node 1, m/s
         69     6.87371706590E-004                                                     F               0         Tower Z translation velocity, node 1, m/s
         70    -9.79039445519E-003                                                     F               0         Tower X translation velocity, node 2, m/s
         71     5.43302483857E-003                                                     F               0         Tower Y translation velocity, node 2, m/s
         72     9.46729269344E-004                                                     F               0         Tower Z translation velocity, node 2, m/s
         73    -1.07786608860E-002                                                     F               0         Tower X translation velocity, node 3, m/s
         74     5.95741858706E-003                                                     F               0         Tower Y translation velocity, node 3, m/s
         75     1.07187055983E-003                                                     F               0         Tower Z translation velocity, node 3, m/s
         76    -1.07841743156E-002                                                     F               0         Tower X translation velocity, node 4, m/s
         77     6.00687973201E-003                                                     F               0         Tower Y translation velocity, node 4, m/s
         78     1.07516814023E-003                                                     F               0         Tower Z translation velocity, node 4, m/s
         79    -9.82549414039E-003                                                     F               0         Tower X translation velocity, node 5, m/s
         80     5.62435109168E-003                                                     F               0         Tower Y translation velocity, node 5, m/s
         81     9.58440941758E-004                                                     F               0         Tower Z translation velocity, node 5, m/s
         82    -7.94095452875E-003                                                     F               0         Tower X translation velocity, node 6, m/s
         83     4.85589029267E-003                                                     F               0         Tower Y translation velocity, node 6, m/s
         84     7.26422877051E-004                                                     F               0         Tower Z translation velocity, node 6, m/s
         85    -5.26014994830E-003                                                     F               0         Tower X translation velocity, node 7, m/s
         86     3.77583876252E-003                                                     F               0         Tower Y translation velocity, node 7, m/s
         87     3.95481911255E-004                                                     F               0         Tower Z translation velocity, node 7, m/s
         88    -1.79886340629E-003                                                     F               0         Tower X translation velocity, node 8, m/s
         89     2.40717967972E-003                                                     F               0         Tower Y translation velocity, node 8, m/s
         90    -3.20684121107E-005                                                     F               0         Tower Z translation velocity, node 8, m/s
         91     2.32046842575E-003                                                     F               0         Tower X translation velocity, node 9, m/s
         92     8.08551674709E-004                                                     F               0         Tower Y translation velocity, node 9, m/s
         93    -5.40632987395E-004                                                     F               0         Tower Z translation velocity, node 9, m/s
         94     6.94517418742E-003                                                     F               0         Tower X translation velocity, node 10, m/s
         95    -9.57336858846E-004                                                     F               0         Tower Y translation velocity, node 10, m/s
         96    -1.11097842455E-003                                                     F               0         Tower Z translation velocity, node 10, m/s
         97     1.19054913521E-002                                                     F               0         Tower X translation velocity, node 11, m/s
         98    -2.82823666930E-003                                                     F               0         Tower Y translation velocity, node 11, m/s
         99    -1.72191171441E-003                                                     F               0         Tower Z translation velocity, node 11, m/s
        100     2.16019935608E+001                                                     F               0         Hub X translation displacement, node 1, m
        101    -9.22168540955E+000                                                     F               0         Hub Y translation displacement, node 1, m
        102     2.00299508870E-002                                                     F               0         Hub Z translation displacement, node 1, m
        103     9.78903472424E-001,  -2.44645721978E-004,  -2.04322978854E-001         F               0         Hub X orientation angle, node 1, rad
        104     1.98355928063E-001,  -2.38771289587E-001,   9.50601518154E-001         F               0         Hub Y orientation angle, node 1, rad
        105    -4.90190200508E-002,  -9.71075773239E-001,  -2.33685523272E-001         F               0         Hub Z orientation angle, node 1, rad
        106     7.74848580360E-001                                                     F               0         Hub X rotation velocity, node 1, rad/s
        107     2.16815620661E-004                                                     F               0         Hub Y rotation velocity, node 1, rad/s
        108    -1.61705568433E-001                                                     F               0         Hub Z rotation velocity, node 1, rad/s
        109     8.79029750824E-001,   6.91463947296E-002,  -4.71726119518E-001         F               0         Blade root 1 X orientation angle, node 1, rad
        110     4.74240332842E-001,  -2.28540077806E-001,   8.50215017796E-001         F               0         Blade root 1 Y orientation angle, node 1, rad
        111    -4.90190200508E-002,  -9.71075773239E-001,  -2.33685523272E-001         F               0         Blade root 1 Z orientation angle, node 1, rad
        112     9.77820336819E-001,   2.09440648556E-001,   1.40798639040E-003         F               0         Blade root 2 X orientation angle, node 1, rad
        113     1.48924127221E-001,  -6.90527141094E-001,  -7.07809209824E-001         F               0         Blade root 2 Y orientation angle, node 1, rad
        114    -1.47271767259E-001,   6.92319929600E-001,  -7.06402301788E-001         F               0         Blade root 2 Z orientation angle, node 1, rad
        115     9.53149676323E-001,  -2.79289305210E-001,  -1.16202928126E-001         F               0         Blade root 3 X orientation angle, node 1, rad
        116     2.30164214969E-001,   9.18853998184E-001,  -3.20518016815E-001         F               0         Blade root 3 Y orientation angle, node 1, rad
        117     1.96290776134E-001,   2.78755903244E-001,   9.40087795258E-001         F               0         Blade root 3 Z orientation angle, node 1, rad
        118     2.07513389587E+001                                                     F               0         Blade 1 X translation displacement, node 1, m
        119    -1.46014451981E+001                                                     F               0         Blade 1 Y translation displacement, node 1, m
        120    -6.78424644470E+000                                                     F               0         Blade 1 Z translation displacement, node 1, m
        121     2.05463676453E+001                                                     F               0         Blade 1 X translation displacement, node 2, m
        122    -1.58977403641E+001                                                     F               0         Blade 1 Y translation displacement, node 2, m
        123    -8.42378520966E+000                                                     F               0         Blade 1 Z translation displacement, node 2, m
        124     1.77591114044E+001                                                     F               0         Blade 1 X translation displacement, node 3, m
        125    -3.35251045227E+001                                                     F               0         Blade 1 Y translation displacement, node 3, m
        126    -3.07187042236E+001                                                     F               0         Blade 1 Z translation displacement, node 3, m
        127     1.71652698517E+001                                                     F               0         Blade 1 X translation displacement, node 4, m
        128    -3.72807159424E+001                                                     F               0         Blade 1 Y translation displacement, node 4, m
        129    -3.54687767029E+001                                                     F               0         Blade 1 Z translation displacement, node 4, m
        130     1.65713157654E+001                                                     F               0         Blade 1 X translation displacement, node 5, m
        131    -4.10370445251E+001                                                     F               0         Blade 1 Y translation displacement, node 5, m
        132    -4.02197380066E+001                                                     F               0         Blade 1 Z translation displacement, node 5, m
        133     1.59774723053E+001                                                     F               0         Blade 1 X translation displacement, node 6, m
        134    -4.47926750183E+001                                                     F               0         Blade 1 Y translation displacement, node 6, m
        135    -4.49698257446E+001                                                     F               0         Blade 1 Z translation displacement, node 6, m
        136     1.53836259842E+001                                                     F               0         Blade 1 X translation displacement, node 7, m
        137    -4.85483169556E+001                                                     F               0         Blade 1 Y translation displacement, node 7, m
        138    -4.97199211121E+001                                                     F               0         Blade 1 Z translation displacement, node 7, m
        139     1.47896738052E+001                                                     F               0         Blade 1 X translation displacement, node 8, m
        140    -5.23046302795E+001                                                     F               0         Blade 1 Y translation displacement, node 8, m
        141    -5.44708786011E+001                                                     F               0         Blade 1 Z translation displacement, node 8, m
        142     1.41958274841E+001                                                     F               0         Blade 1 X translation displacement, node 9, m
        143    -5.60602722168E+001                                                     F               0         Blade 1 Y translation displacement, node 9, m
        144    -5.92209701538E+001                                                     F               0         Blade 1 Z translation displacement, node 9, m
        145     1.36019840240E+001                                                     F               0         Blade 1 X translation displacement, node 10, m
        146    -5.98159027100E+001                                                     F               0         Blade 1 Y translation displacement, node 10, m
        147    -6.39710617065E+001                                                     F               0         Blade 1 Z translation displacement, node 10, m
        148     1.30081377029E+001                                                     F               0         Blade 1 X translation displacement, node 11, m
        149    -6.35715446472E+001                                                     F               0         Blade 1 Y translation displacement, node 11, m
        150    -6.87211532593E+001                                                     F               0         Blade 1 Z translation displacement, node 11, m
        151     1.24141883850E+001                                                     F               0         Blade 1 X translation displacement, node 12, m
        152    -6.73278427124E+001                                                     F               0         Blade 1 Y translation displacement, node 12, m
        153    -7.34720993042E+001                                                     F               0         Blade 1 Z translation displacement, node 12, m
        154     1.18203420639E+001                                                     F               0         Blade 1 X translation displacement, node 13, m
        155    -7.10834884644E+001                                                     F               0         Blade 1 Y translation displacement, node 13, m
        156    -7.82221908569E+001                                                     F               0         Blade 1 Z translation displacement, node 13, m
        157     1.12264986038E+001                                                     F               0         Blade 1 X translation displacement, node 14, m
        158    -7.48391189575E+001                                                     F               0         Blade 1 Y translation displacement, node 14, m
        159    -8.29722824097E+001                                                     F               0         Blade 1 Z translation displacement, node 14, m
        160     1.06325445175E+001                                                     F               0         Blade 1 X translation displacement, node 15, m
        161    -7.85954360962E+001                                                     F               0         Blade 1 Y translation displacement, node 15, m
        162    -8.77232360840E+001                                                     F               0         Blade 1 Z translation displacement, node 15, m
        163     1.00387010574E+001                                                     F               0         Blade 1 X translation displacement, node 16, m
        164    -8.23510665894E+001                                                     F               0         Blade 1 Y translation displacement, node 16, m
        165    -9.24733276367E+001                                                     F               0         Blade 1 Z translation displacement, node 16, m
        166     9.44485473633E+000                                                     F               0         Blade 1 X translation displacement, node 17, m
        167    -8.61067199707E+001                                                     F               0         Blade 1 Y translation displacement, node 17, m
        168    -9.72234268188E+001                                                     F               0         Blade 1 Z translation displacement, node 17, m
        169     8.85101032257E+000                                                     F               0         Blade 1 X translation displacement, node 18, m
        170    -8.98623504639E+001                                                     F               0         Blade 1 Y translation displacement, node 18, m
        171    -1.01973518372E+002                                                     F               0         Blade 1 Z translation displacement, node 18, m
        172     8.25706005096E+000                                                     F               0         Blade 1 X translation displacement, node 19, m
        173    -9.36186447144E+001                                                     F               0         Blade 1 Y translation displacement, node 19, m
        174    -1.06724456787E+002                                                     F               0         Blade 1 Z translation displacement, node 19, m
        175     7.66321325302E+000                                                     F               0         Blade 1 X translation displacement, node 20, m
        176    -9.73742904663E+001                                                     F               0         Blade 1 Y translation displacement, node 20, m
        177    -1.11474548340E+002                                                     F               0         Blade 1 Z translation displacement, node 20, m
        178     7.06936931610E+000                                                     F               0         Blade 1 X translation displacement, node 21, m
        179    -1.01129928589E+002                                                     F               0         Blade 1 Y translation displacement, node 21, m
        180    -1.16224647522E+002                                                     F               0         Blade 1 Z translation displacement, node 21, m
        181     6.47541666031E+000                                                     F               0         Blade 1 X translation displacement, node 22, m
        182    -1.04886238098E+002                                                     F               0         Blade 1 Y translation displacement, node 22, m
        183    -1.20975601196E+002                                                     F               0         Blade 1 Z translation displacement, node 22, m