
Linearized model: Predictions were generated on 13-Feb-2024 at 11:29:37 using OpenFAST, compiled as a 64-bit application using single precision at commit v3.5.1
 linked with  NWTC Subroutine Library; ElastoDyn; InflowWind; AeroDyn; ServoDyn; HydroDyn; MAP++ (<1.20.10>, <Oct-20-2023>)

Description from the FAST input file: CCT-9 Campign 4 model. Input files to be run with OpenFAST 3.5.0. GitHub branch from Lu Wang (https://github.com/luwang00/openfast/tree/dev) compiled on March 7, 2023.

Simulation information:
   Simulation time:                  1215.0250 s
   Rotor Speed:                         0.7916 rad/s
   Azimuth:                             3.3248 rad
   Wind Speed:                         16.0000 m/s
   Number of continuous states:        14
   Number of discrete states:           0
   Number of constraint states:         0
   Number of inputs:                 1890
   Number of outputs:                  25
   Jacobians included in this file?    No

Order of continuous states:
   Row/Column Operating Point                                                   Rotating Frame? Derivative Order Description
   ---------- ---------------                                                   --------------- ---------------- -----------
          1     8.64553260803E+000                                                     F               2         Platform horizontal surge translation DOF (internal DOF index = DOF_Sg), m
          2    -6.18485808372E-001                                                     F               2         Platform horizontal sway translation DOF (internal DOF index = DOF_Sw), m
          3    -1.36046007276E-001                                                     F               2         Platform vertical heave translation DOF (internal DOF index = DOF_Hv), m
          4     5.16792424023E-002                                                     F               2         Platform roll tilt rotation DOF (internal DOF index = DOF_R), rad
          5     1.13038718700E-001                                                     F               2         Platform pitch tilt rotation DOF (internal DOF index = DOF_P), rad
          6     5.26763848029E-004                                                     F               2         Platform yaw rotation DOF (internal DOF index = DOF_Y), rad
          7     1.75397849083E+000                                                     F               2         Variable speed generator DOF (internal DOF index = DOF_GeAz), rad
          8    -1.94941574591E-004                                                     F               2         First time derivative of Platform horizontal surge translation DOF (internal DOF index = DOF_Sg), m/s
          9    -1.42713892274E-004                                                     F               2         First time derivative of Platform horizontal sway translation DOF (internal DOF index = DOF_Sw), m/s
         10    -5.17075601965E-003                                                     F               2         First time derivative of Platform vertical heave translation DOF (internal DOF index = DOF_Hv), m/s
         11     3.07327136397E-005                                                     F               2         First time derivative of Platform roll tilt rotation DOF (internal DOF index = DOF_R), rad/s
         12    -1.20883069030E-005                                                     F               2         First time derivative of Platform pitch tilt rotation DOF (internal DOF index = DOF_P), rad/s
         13     4.76539344163E-006                                                     F               2         First time derivative of Platform yaw rotation DOF (internal DOF index = DOF_Y), rad/s
         14     7.91620194912E-001                                                     F               2         First time derivative of Variable speed generator DOF (internal DOF index = DOF_GeAz), rad/s

Order of continuous state derivatives:
   Row/Column Operating Point                                                   Rotating Frame? Derivative Order Description
   ---------- ---------------                                                   --------------- ---------------- -----------
          1    -1.94941574591E-004                                                     F               2         First time derivative of Platform horizontal surge translation DOF (internal DOF index = DOF_Sg), m/s
          2    -1.42713892274E-004                                                     F               2         First time derivative of Platform horizontal sway translation DOF (internal DOF index = DOF_Sw), m/s
          3    -5.17075601965E-003                                                     F               2         First time derivative of Platform vertical heave translation DOF (internal DOF index = DOF_Hv), m/s
          4     3.07327136397E-005                                                     F               2         First time derivative of Platform roll tilt rotation DOF (internal DOF index = DOF_R), rad/s
          5    -1.20883069030E-005                                                     F               2         First time derivative of Platform pitch tilt rotation DOF (internal DOF index = DOF_P), rad/s
          6     4.76539344163E-006                                                     F               2         First time derivative of Platform yaw rotation DOF (internal DOF index = DOF_Y), rad/s
          7     7.91620194912E-001                                                     F               2         First time derivative of Variable speed generator DOF (internal DOF index = DOF_GeAz), rad/s
          8    -1.56734546181E-004                                                     F               2         First time derivative of First time derivative of Platform horizontal surge translation DOF (internal DOF index = DOF_Sg), m/s/s
          9     1.16162322229E-004                                                     F               2         First time derivative of First time derivative of Platform horizontal sway translation DOF (internal DOF index = DOF_Sw), m/s/s
         10    -1.57536566257E-003                                                     F               2         First time derivative of First time derivative of Platform vertical heave translation DOF (internal DOF index = DOF_Hv), m/s/s
         11    -9.77463628260E-007                                                     F               2         First time derivative of First time derivative of Platform roll tilt rotation DOF (internal DOF index = DOF_R), rad/s/s
         12    -1.56235255417E-005                                                     F               2         First time derivative of First time derivative of Platform pitch tilt rotation DOF (internal DOF index = DOF_P), rad/s/s
         13    -1.23096206153E-005                                                     F               2         First time derivative of First time derivative of Platform yaw rotation DOF (internal DOF index = DOF_Y), rad/s/s
         14     1.67865393450E-004                                                     F               2         First time derivative of First time derivative of Variable speed generator DOF (internal DOF index = DOF_GeAz), rad/s/s

Order of inputs:
     Column   Operating Point                                                   Rotating Frame? Derivative Order Description
   ---------- ---------------                                                   --------------- ---------------- -----------
          1     1.59861373901E+002                                                     F               0         Blade 1 X force, node 1, N
          2    -6.69515075684E+001                                                     F               0         Blade 1 Y force, node 1, N
          3    -5.19281425476E+001                                                     F               0         Blade 1 Z force, node 1, N
          4     6.85112487793E+002                                                     F               0         Blade 1 X force, node 2, N
          5    -9.93251495361E+001                                                     F               0         Blade 1 Y force, node 2, N
          6    -1.76770278931E+002                                                     F               0         Blade 1 Z force, node 2, N
          7     8.89572509766E+002                                                     F               0         Blade 1 X force, node 3, N
          8     9.67543487549E+001                                                     F               0         Blade 1 Y force, node 3, N
          9    -1.74447769165E+002                                                     F               0         Blade 1 Z force, node 3, N
         10     1.16678332520E+003                                                     F               0         Blade 1 X force, node 4, N
         11     2.83093109131E+002                                                     F               0         Blade 1 Y force, node 4, N
         12    -1.90699401855E+002                                                     F               0         Blade 1 Z force, node 4, N
         13     1.44400476074E+003                                                     F               0         Blade 1 X force, node 5, N
         14     4.69435821533E+002                                                     F               0         Blade 1 Y force, node 5, N
         15    -2.06952468872E+002                                                     F               0         Blade 1 Z force, node 5, N
         16     1.72121862793E+003                                                     F               0         Blade 1 X force, node 6, N
         17     6.55776550293E+002                                                     F               0         Blade 1 Y force, node 6, N
         18    -2.23204269409E+002                                                     F               0         Blade 1 Z force, node 6, N
         19     1.99841906738E+003                                                     F               0         Blade 1 X force, node 7, N
         20     8.42111877441E+002                                                     F               0         Blade 1 Y force, node 7, N
         21    -2.39454437256E+002                                                     F               0         Blade 1 Z force, node 7, N
         22     2.27562988281E+003                                                     F               0         Blade 1 X force, node 8, N
         23     1.02845056152E+003                                                     F               0         Blade 1 Y force, node 8, N
         24    -2.55706054688E+002                                                     F               0         Blade 1 Z force, node 8, N
         25     2.55284082031E+003                                                     F               0         Blade 1 X force, node 9, N
         26     1.21478930664E+003                                                     F               0         Blade 1 Y force, node 9, N
         27    -2.71957702637E+002                                                     F               0         Blade 1 Z force, node 9, N
         28     2.83005126953E+003                                                     F               0         Blade 1 X force, node 10, N
         29     1.40112805176E+003                                                     F               0         Blade 1 Y force, node 10, N
         30    -2.88209289551E+002                                                     F               0         Blade 1 Z force, node 10, N
         31     3.10726220703E+003                                                     F               0         Blade 1 X force, node 11, N
         32     1.58746691895E+003                                                     F               0         Blade 1 Y force, node 11, N
         33    -3.04460937500E+002                                                     F               0         Blade 1 Z force, node 11, N
         34     3.38449658203E+003                                                     F               0         Blade 1 X force, node 12, N
         35     1.77381823730E+003                                                     F               0         Blade 1 Y force, node 12, N
         36    -3.20714752197E+002                                                     F               0         Blade 1 Z force, node 12, N
         37     3.66171020508E+003                                                     F               0         Blade 1 X force, node 13, N
         38     1.96015893555E+003                                                     F               0         Blade 1 Y force, node 13, N
         39    -3.36966522217E+002                                                     F               0         Blade 1 Z force, node 13, N
         40     3.93889843750E+003                                                     F               0         Blade 1 X force, node 14, N
         41     2.14648559570E+003                                                     F               0         Blade 1 Y force, node 14, N
         42    -3.53215972900E+002                                                     F               0         Blade 1 Z force, node 14, N
         43     4.21613720703E+003                                                     F               0         Blade 1 X force, node 15, N
         44     2.33284008789E+003                                                     F               0         Blade 1 Y force, node 15, N
         45    -3.69470092773E+002                                                     F               0         Blade 1 Z force, node 15, N
         46     4.49331884766E+003                                                     F               0         Blade 1 X force, node 16, N
         47     2.51916235352E+003                                                     F               0         Blade 1 Y force, node 16, N
         48    -3.85719207764E+002                                                     F               0         Blade 1 Z force, node 16, N
         49     5.52592578125E+003                                                     F               0         Blade 1 X force, node 17, N
         50     3.12647338867E+003                                                     F               0         Blade 1 Y force, node 17, N
         51    -4.67435333252E+002                                                     F               0         Blade 1 Z force, node 17, N
         52     4.17489794922E+003                                                     F               0         Blade 1 X force, node 18, N
         53     2.31464624023E+003                                                     F               0         Blade 1 Y force, node 18, N
         54    -3.64727874756E+002                                                     F               0         Blade 1 Z force, node 18, N
         55     5.05927490234E+003                                                     F               0         Blade 1 X force, node 19, N
         56     2.72470947266E+003                                                     F               0         Blade 1 Y force, node 19, N
         57    -4.61570709229E+002                                                     F               0         Blade 1 Z force, node 19, N
         58     4.26319531250E+003                                                     F               0         Blade 1 X force, node 20, N
         59     2.23198852539E+003                                                     F               0         Blade 1 Y force, node 20, N
         60    -4.04555206299E+002                                                     F               0         Blade 1 Z force, node 20, N
         61     6.21169091797E+003                                                     F               0         Blade 1 X force, node 21, N
         62     3.14812768555E+003                                                     F               0         Blade 1 Y force, node 21, N
         63    -6.14831726074E+002                                                     F               0         Blade 1 Z force, node 21, N
         64     5.40972851562E+003                                                     F               0         Blade 1 X force, node 22, N
         65     2.65691992188E+003                                                     F               0         Blade 1 Y force, node 22, N
         66    -5.56137023926E+002                                                     F               0         Blade 1 Z force, node 22, N
         67     5.49053076172E+003                                                     F               0         Blade 1 X force, node 23, N
         68     2.61994360352E+003                                                     F               0         Blade 1 Y force, node 23, N
         69    -5.83149414062E+002                                                     F               0         Blade 1 Z force, node 23, N
         70     5.66788623047E+003                                                     F               0         Blade 1 X force, node 24, N
         71     2.62800341797E+003                                                     F               0         Blade 1 Y force, node 24, N
         72    -6.20669738770E+002                                                     F               0         Blade 1 Z force, node 24, N
         73     5.74254150391E+003                                                     F               0         Blade 1 X force, node 25, N
         74     2.58734643555E+003                                                     F               0         Blade 1 Y force, node 25, N
         75    -6.47211547852E+002                                                     F               0         Blade 1 Z force, node 25, N
         76     5.84858251953E+003                                                     F               0         Blade 1 X force, node 26, N
         77     2.56122924805E+003                                                     F               0         Blade 1 Y force, node 26, N
         78    -6.77193237305E+002                                                     F               0         Blade 1 Z force, node 26, N
         79     6.92992431641E+003                                                     F               0         Blade 1 X force, node 27, N
         80     2.94544213867E+003                                                     F               0         Blade 1 Y force, node 27, N
         81    -8.24196350098E+002                                                     F               0         Blade 1 Z force, node 27, N
         82     5.07881542969E+003                                                     F               0         Blade 1 X force, node 28, N
         83     2.09806494141E+003                                                     F               0         Blade 1 Y force, node 28, N
         84    -6.18823974609E+002                                                     F               0         Blade 1 Z force, node 28, N
         85     6.15198632812E+003                                                     F               0         Blade 1 X force, node 29, N
         86     2.48161962891E+003                                                     F               0         Blade 1 Y force, node 29, N
         87    -7.64168518066E+002                                                     F               0         Blade 1 Z force, node 29, N
         88     5.18462402344E+003                                                     F               0         Blade 1 X force, node 30, N
         89     2.04265136719E+003                                                     F               0         Blade 1 Y force, node 30, N
         90    -6.55902465820E+002                                                     F               0         Blade 1 Z force, node 30, N
         91     7.40380273438E+003                                                     F               0         Blade 1 X force, node 31, N
         92     2.83766674805E+003                                                     F               0         Blade 1 Y force, node 31, N
         93    -9.55998901367E+002                                                     F               0         Blade 1 Z force, node 31, N
         94     6.41914501953E+003                                                     F               0         Blade 1 X force, node 32, N
         95     2.39323291016E+003                                                     F               0         Blade 1 Y force, node 32, N
         96    -8.45215698242E+002                                                     F               0         Blade 1 Z force, node 32, N
         97     6.49714355469E+003                                                     F               0         Blade 1 X force, node 33, N
         98     2.36023852539E+003                                                     F               0         Blade 1 Y force, node 33, N
         99    -8.70632080078E+002                                                     F               0         Blade 1 Z force, node 33, N
        100     6.57344482422E+003                                                     F               0         Blade 1 X force, node 34, N
        101     2.32741674805E+003                                                     F               0         Blade 1 Y force, node 34, N
        102    -8.95628479004E+002                                                     F               0         Blade 1 Z force, node 34, N
        103     6.63628222656E+003                                                     F               0         Blade 1 X force, node 35, N
        104     2.29286840820E+003                                                     F               0         Blade 1 Y force, node 35, N
        105    -9.18048767090E+002                                                     F               0         Blade 1 Z force, node 35, N
        106     6.69399072266E+003                                                     F               0         Blade 1 X force, node 36, N
        107     2.25727734375E+003                                                     F               0         Blade 1 Y force, node 36, N
        108    -9.39581420898E+002                                                     F               0         Blade 1 Z force, node 36, N
        109     7.89210839844E+003                                                     F               0         Blade 1 X force, node 37, N
        110     2.59312182617E+003                                                     F               0         Blade 1 Y force, node 37, N
        111    -1.12438574219E+003                                                     F               0         Blade 1 Z force, node 37, N
        112     5.65643652344E+003                                                     F               0         Blade 1 X force, node 38, N
        113     1.81300280762E+003                                                     F               0         Blade 1 Y force, node 38, N
        114    -8.16982604980E+002                                                     F               0         Blade 1 Z force, node 38, N
        115     6.83462939453E+003                                                     F               0         Blade 1 X force, node 39, N
        116     2.14547216797E+003                                                     F               0         Blade 1 Y force, node 39, N
        117    -9.98174255371E+002                                                     F               0         Blade 1 Z force, node 39, N
        118     5.74711914062E+003                                                     F               0         Blade 1 X force, node 40, N
        119     1.76633447266E+003                                                     F               0         Blade 1 Y force, node 40, N
        120    -8.48559448242E+002                                                     F               0         Blade 1 Z force, node 40, N
        121     8.02922900391E+003                                                     F               0         Blade 1 X force, node 41, N
        122     2.40798901367E+003                                                     F               0         Blade 1 Y force, node 41, N
        123    -1.20008728027E+003                                                     F               0         Blade 1 Z force, node 41, N
        124     6.92924609375E+003                                                     F               0         Blade 1 X force, node 42, N
        125     2.02897729492E+003                                                     F               0         Blade 1 Y force, node 42, N
        126    -1.04766503906E+003                                                     F               0         Blade 1 Z force, node 42, N
        127     6.95333007812E+003                                                     F               0         Blade 1 X force, node 43, N
        128     1.99019641113E+003                                                     F               0         Blade 1 Y force, node 43, N
        129    -1.06248950195E+003                                                     F               0         Blade 1 Z force, node 43, N
        130     7.01063916016E+003                                                     F               0         Blade 1 X force, node 44, N
        131     1.96114538574E+003                                                     F               0         Blade 1 Y force, node 44, N
        132    -1.08233764648E+003                                                     F               0         Blade 1 Z force, node 44, N
        133     6.94331250000E+003                                                     F               0         Blade 1 X force, node 45, N
        134     1.89957971191E+003                                                     F               0         Blade 1 Y force, node 45, N
        135    -1.08236999512E+003                                                     F               0         Blade 1 Z force, node 45, N
        136     6.98247216797E+003                                                     F               0         Blade 1 X force, node 46, N
        137     1.86811572266E+003                                                     F               0         Blade 1 Y force, node 46, N
        138    -1.09876574707E+003                                                     F               0         Blade 1 Z force, node 46, N
        139     8.20023339844E+003                                                     F               0         Blade 1 X force, node 47, N
        140     2.14119311523E+003                                                     F               0         Blade 1 Y force, node 47, N
        141    -1.30325866699E+003                                                     F               0         Blade 1 Z force, node 47, N
        142     5.76778076172E+003                                                     F               0         Blade 1 X force, node 48, N
        143     1.47147778320E+003                                                     F               0         Blade 1 Y force, node 48, N
        144    -9.25105041504E+002                                                     F               0         Blade 1 Z force, node 48, N
        145     6.97973291016E+003                                                     F               0         Blade 1 X force, node 49, N
        146     1.74642834473E+003                                                     F               0         Blade 1 Y force, node 49, N
        147    -1.12784790039E+003                                                     F               0         Blade 1 Z force, node 49, N
        148     5.87758740234E+003                                                     F               0         Blade 1 X force, node 50, N
        149     1.44143408203E+003                                                     F               0         Blade 1 Y force, node 50, N
        150    -9.56883483887E+002                                                     F               0         Blade 1 Z force, node 50, N
        151     8.06616894531E+003                                                     F               0         Blade 1 X force, node 51, N
        152     1.93241027832E+003                                                     F               0         Blade 1 Y force, node 51, N
        153    -1.32435412598E+003                                                     F               0         Blade 1 Z force, node 51, N
        154     6.95194824219E+003                                                     F               0         Blade 1 X force, node 52, N
        155     1.62737280273E+003                                                     F               0         Blade 1 Y force, node 52, N
        156    -1.15071179199E+003                                                     F               0         Blade 1 Z force, node 52, N
        157     6.93533300781E+003                                                     F               0         Blade 1 X force, node 53, N
        158     1.58762695312E+003                                                     F               0         Blade 1 Y force, node 53, N