
Linearized model: Predictions were generated on 12-Jan-2024 at 09:28:28 using OpenFAST, compiled as a 64-bit application using single precision at commit v3.5.1
 linked with  NWTC Subroutine Library; ElastoDyn; InflowWind; AeroDyn; ServoDyn; HydroDyn; MAP++ (<1.20.10>, <Oct-20-2023>)

Description from the FAST input file: CCT-9 Campign 4 model. Input files to be run with OpenFAST 3.5.0. GitHub branch from Lu Wang (https://github.com/luwang00/openfast/tree/dev) compiled on March 7, 2023.

Simulation information:
   Simulation time:                   505.9250 s
   Rotor Speed:                         0.8776 rad/s
   Azimuth:                             2.7700 rad
   Wind Speed:                         10.0000 m/s
   Number of continuous states:         0
   Number of discrete states:           0
   Number of constraint states:         0
   Number of inputs:                  303
   Number of outputs:                   1
   Jacobians included in this file?    No

Order of inputs:
     Column   Operating Point                     Rotating Frame? Derivative Order Description
   ---------- ---------------                     --------------- ---------------- -----------
          1   -1.080E+01                                 F               0         X-component position of node 1 (hub), m
          2    0.000E+00                                 F               0         Y-component position of node 1 (hub), m
          3    1.497E+02                                 F               0         Z-component position of node 1 (hub), m
          4    1.543E+01                                 F               0         X-component position of node 2 (blade 1, node 1), m
          5   -9.477E+00                                 F               0         Y-component position of node 2 (blade 1, node 1), m
          6    1.445E+02                                 F               0         Z-component position of node 2 (blade 1, node 1), m
          7    1.515E+01                                 F               0         X-component position of node 3 (blade 1, node 2), m
          8   -9.902E+00                                 F               0         Y-component position of node 3 (blade 1, node 2), m
          9    1.433E+02                                 F               0         Z-component position of node 3 (blade 1, node 2), m
         10    1.129E+01                                 F               0         X-component position of node 4 (blade 1, node 3), m
         11   -1.567E+01                                 F               0         Y-component position of node 4 (blade 1, node 3), m
         12    1.265E+02                                 F               0         Z-component position of node 4 (blade 1, node 3), m
         13    1.046E+01                                 F               0         X-component position of node 5 (blade 1, node 4), m
         14   -1.690E+01                                 F               0         Y-component position of node 5 (blade 1, node 4), m
         15    1.229E+02                                 F               0         Z-component position of node 5 (blade 1, node 4), m
         16    9.641E+00                                 F               0         X-component position of node 6 (blade 1, node 5), m
         17   -1.813E+01                                 F               0         Y-component position of node 6 (blade 1, node 5), m
         18    1.193E+02                                 F               0         Z-component position of node 6 (blade 1, node 5), m
         19    8.819E+00                                 F               0         X-component position of node 7 (blade 1, node 6), m
         20   -1.936E+01                                 F               0         Y-component position of node 7 (blade 1, node 6), m
         21    1.158E+02                                 F               0         Z-component position of node 7 (blade 1, node 6), m
         22    7.996E+00                                 F               0         X-component position of node 8 (blade 1, node 7), m
         23   -2.059E+01                                 F               0         Y-component position of node 8 (blade 1, node 7), m
         24    1.122E+02                                 F               0         Z-component position of node 8 (blade 1, node 7), m
         25    7.174E+00                                 F               0         X-component position of node 9 (blade 1, node 8), m
         26   -2.182E+01                                 F               0         Y-component position of node 9 (blade 1, node 8), m
         27    1.086E+02                                 F               0         Z-component position of node 9 (blade 1, node 8), m
         28    6.352E+00                                 F               0         X-component position of node 10 (blade 1, node 9), m
         29   -2.305E+01                                 F               0         Y-component position of node 10 (blade 1, node 9), m
         30    1.050E+02                                 F               0         Z-component position of node 10 (blade 1, node 9), m
         31    5.529E+00                                 F               0         X-component position of node 11 (blade 1, node 10), m
         32   -2.428E+01                                 F               0         Y-component position of node 11 (blade 1, node 10), m
         33    1.015E+02                                 F               0         Z-component position of node 11 (blade 1, node 10), m
         34    4.707E+00                                 F               0         X-component position of node 12 (blade 1, node 11), m
         35   -2.551E+01                                 F               0         Y-component position of node 12 (blade 1, node 11), m
         36    9.790E+01                                 F               0         Z-component position of node 12 (blade 1, node 11), m
         37    3.885E+00                                 F               0         X-component position of node 13 (blade 1, node 12), m
         38   -2.674E+01                                 F               0         Y-component position of node 13 (blade 1, node 12), m
         39    9.433E+01                                 F               0         Z-component position of node 13 (blade 1, node 12), m
         40    3.062E+00                                 F               0         X-component position of node 14 (blade 1, node 13), m
         41   -2.797E+01                                 F               0         Y-component position of node 14 (blade 1, node 13), m
         42    9.075E+01                                 F               0         Z-component position of node 14 (blade 1, node 13), m
         43    2.240E+00                                 F               0         X-component position of node 15 (blade 1, node 14), m
         44   -2.920E+01                                 F               0         Y-component position of node 15 (blade 1, node 14), m
         45    8.718E+01                                 F               0         Z-component position of node 15 (blade 1, node 14), m
         46    1.418E+00                                 F               0         X-component position of node 16 (blade 1, node 15), m
         47   -3.043E+01                                 F               0         Y-component position of node 16 (blade 1, node 15), m
         48    8.361E+01                                 F               0         Z-component position of node 16 (blade 1, node 15), m
         49    5.955E-01                                 F               0         X-component position of node 17 (blade 1, node 16), m
         50   -3.166E+01                                 F               0         Y-component position of node 17 (blade 1, node 16), m
         51    8.003E+01                                 F               0         Z-component position of node 17 (blade 1, node 16), m
         52   -2.268E-01                                 F               0         X-component position of node 18 (blade 1, node 17), m
         53   -3.289E+01                                 F               0         Y-component position of node 18 (blade 1, node 17), m
         54    7.646E+01                                 F               0         Z-component position of node 18 (blade 1, node 17), m
         55   -1.049E+00                                 F               0         X-component position of node 19 (blade 1, node 18), m
         56   -3.412E+01                                 F               0         Y-component position of node 19 (blade 1, node 18), m
         57    7.289E+01                                 F               0         Z-component position of node 19 (blade 1, node 18), m
         58   -1.872E+00                                 F               0         X-component position of node 20 (blade 1, node 19), m
         59   -3.535E+01                                 F               0         Y-component position of node 20 (blade 1, node 19), m
         60    6.931E+01                                 F               0         Z-component position of node 20 (blade 1, node 19), m
         61   -2.694E+00                                 F               0         X-component position of node 21 (blade 1, node 20), m
         62   -3.658E+01                                 F               0         Y-component position of node 21 (blade 1, node 20), m
         63    6.574E+01                                 F               0         Z-component position of node 21 (blade 1, node 20), m
         64   -3.516E+00                                 F               0         X-component position of node 22 (blade 1, node 21), m
         65   -3.781E+01                                 F               0         Y-component position of node 22 (blade 1, node 21), m
         66    6.216E+01                                 F               0         Z-component position of node 22 (blade 1, node 21), m
         67   -4.339E+00                                 F               0         X-component position of node 23 (blade 1, node 22), m
         68   -3.904E+01                                 F               0         Y-component position of node 23 (blade 1, node 22), m
         69    5.859E+01                                 F               0         Z-component position of node 23 (blade 1, node 22), m
         70   -5.161E+00                                 F               0         X-component position of node 24 (blade 1, node 23), m
         71   -4.027E+01                                 F               0         Y-component position of node 24 (blade 1, node 23), m
         72    5.502E+01                                 F               0         Z-component position of node 24 (blade 1, node 23), m
         73   -5.983E+00                                 F               0         X-component position of node 25 (blade 1, node 24), m
         74   -4.150E+01                                 F               0         Y-component position of node 25 (blade 1, node 24), m
         75    5.144E+01                                 F               0         Z-component position of node 25 (blade 1, node 24), m
         76   -6.805E+00                                 F               0         X-component position of node 26 (blade 1, node 25), m
         77   -4.273E+01                                 F               0         Y-component position of node 26 (blade 1, node 25), m
         78    4.787E+01                                 F               0         Z-component position of node 26 (blade 1, node 25), m
         79   -7.628E+00                                 F               0         X-component position of node 27 (blade 1, node 26), m
         80   -4.396E+01                                 F               0         Y-component position of node 27 (blade 1, node 26), m
         81    4.430E+01                                 F               0         Z-component position of node 27 (blade 1, node 26), m
         82   -8.450E+00                                 F               0         X-component position of node 28 (blade 1, node 27), m
         83   -4.518E+01                                 F               0         Y-component position of node 28 (blade 1, node 27), m
         84    4.072E+01                                 F               0         Z-component position of node 28 (blade 1, node 27), m
         85   -9.147E+00                                 F               0         X-component position of node 29 (blade 1, node 28), m
         86   -4.623E+01                                 F               0         Y-component position of node 29 (blade 1, node 28), m
         87    3.769E+01                                 F               0         Z-component position of node 29 (blade 1, node 28), m
         88    1.678E+01                                 F               0         X-component position of node 30 (blade 2, node 1), m
         89   -2.287E+00                                 F               0         Y-component position of node 30 (blade 2, node 1), m
         90    1.507E+02                                 F               0         Z-component position of node 30 (blade 2, node 1), m
         91    1.682E+01                                 F               0         X-component position of node 31 (blade 2, node 2), m
         92   -9.788E-01                                 F               0         Y-component position of node 31 (blade 2, node 2), m
         93    1.510E+02                                 F               0         Z-component position of node 31 (blade 2, node 2), m
         94    1.738E+01                                 F               0         X-component position of node 32 (blade 2, node 3), m
         95    1.681E+01                                 F               0         Y-component position of node 32 (blade 2, node 3), m
         96    1.545E+02                                 F               0         Z-component position of node 32 (blade 2, node 3), m
         97    1.750E+01                                 F               0         X-component position of node 33 (blade 2, node 4), m
         98    2.060E+01                                 F               0         Y-component position of node 33 (blade 2, node 4), m
         99    1.553E+02                                 F               0         Z-component position of node 33 (blade 2, node 4), m
        100    1.761E+01                                 F               0         X-component position of node 34 (blade 2, node 5), m
        101    2.439E+01                                 F               0         Y-component position of node 34 (blade 2, node 5), m
        102    1.561E+02                                 F               0         Z-component position of node 34 (blade 2, node 5), m
        103    1.773E+01                                 F               0         X-component position of node 35 (blade 2, node 6), m
        104    2.818E+01                                 F               0         Y-component position of node 35 (blade 2, node 6), m
        105    1.568E+02                                 F               0         Z-component position of node 35 (blade 2, node 6), m
        106    1.785E+01                                 F               0         X-component position of node 36 (blade 2, node 7), m
        107    3.197E+01                                 F               0         Y-component position of node 36 (blade 2, node 7), m
        108    1.576E+02                                 F               0         Z-component position of node 36 (blade 2, node 7), m
        109    1.797E+01                                 F               0         X-component position of node 37 (blade 2, node 8), m
        110    3.576E+01                                 F               0         Y-component position of node 37 (blade 2, node 8), m
        111    1.583E+02                                 F               0         Z-component position of node 37 (blade 2, node 8), m
        112    1.809E+01                                 F               0         X-component position of node 38 (blade 2, node 9), m
        113    3.955E+01                                 F               0         Y-component position of node 38 (blade 2, node 9), m
        114    1.591E+02                                 F               0         Z-component position of node 38 (blade 2, node 9), m
        115    1.821E+01                                 F               0         X-component position of node 39 (blade 2, node 10), m
        116    4.334E+01                                 F               0         Y-component position of node 39 (blade 2, node 10), m
        117    1.599E+02                                 F               0         Z-component position of node 39 (blade 2, node 10), m
        118    1.833E+01                                 F               0         X-component position of node 40 (blade 2, node 11), m
        119    4.713E+01                                 F               0         Y-component position of node 40 (blade 2, node 11), m
        120    1.606E+02                                 F               0         Z-component position of node 40 (blade 2, node 11), m
        121    1.845E+01                                 F               0         X-component position of node 41 (blade 2, node 12), m
        122    5.092E+01                                 F               0         Y-component position of node 41 (blade 2, node 12), m
        123    1.614E+02                                 F               0         Z-component position of node 41 (blade 2, node 12), m
        124    1.857E+01                                 F               0         X-component position of node 42 (blade 2, node 13), m
        125    5.471E+01                                 F               0         Y-component position of node 42 (blade 2, node 13), m
        126    1.622E+02                                 F               0         Z-component position of node 42 (blade 2, node 13), m
        127    1.869E+01                                 F               0         X-component position of node 43 (blade 2, node 14), m
        128    5.850E+01                                 F               0         Y-component position of node 43 (blade 2, node 14), m
        129    1.629E+02                                 F               0         Z-component position of node 43 (blade 2, node 14), m
        130    1.880E+01                                 F               0         X-component position of node 44 (blade 2, node 15), m
        131    6.229E+01                                 F               0         Y-component position of node 44 (blade 2, node 15), m
        132    1.637E+02                                 F               0         Z-component position of node 44 (blade 2, node 15), m
        133    1.892E+01                                 F               0         X-component position of node 45 (blade 2, node 16), m
        134    6.608E+01                                 F               0         Y-component position of node 45 (blade 2, node 16), m
        135    1.644E+02                                 F               0         Z-component position of node 45 (blade 2, node 16), m
        136    1.904E+01                                 F               0         X-component position of node 46 (blade 2, node 17), m
        137    6.987E+01                                 F               0         Y-component position of node 46 (blade 2, node 17), m
        138    1.652E+02                                 F               0         Z-component position of node 46 (blade 2, node 17), m
        139    1.916E+01                                 F               0         X-component position of node 47 (blade 2, node 18), m
        140    7.366E+01                                 F               0         Y-component position of node 47 (blade 2, node 18), m
        141    1.660E+02                                 F               0         Z-component position of node 47 (blade 2, node 18), m
        142    1.928E+01                                 F               0         X-component position of node 48 (blade 2, node 19), m
        143    7.745E+01                                 F               0         Y-component position of node 48 (blade 2, node 19), m
        144    1.667E+02                                 F               0         Z-component position of node 48 (blade 2, node 19), m
        145    1.940E+01                                 F               0         X-component position of node 49 (blade 2, node 20), m
        146    8.124E+01                                 F               0         Y-component position of node 49 (blade 2, node 20), m
        147    1.675E+02                                 F               0         Z-component position of node 49 (blade 2, node 20), m
        148    1.952E+01                                 F               0         X-component position of node 50 (blade 2, node 21), m
        149    8.503E+01                                 F               0         Y-component position of node 50 (blade 2, node 21), m
        150    1.682E+02                                 F               0         Z-component position of node 50 (blade 2, node 21), m
        151    1.964E+01                                 F               0         X-component position of node 51 (blade 2, node 22), m
        152    8.882E+01                                 F               0         Y-component position of node 51 (blade 2, node 22), m
        153    1.690E+02                                 F               0         Z-component position of node 51 (blade 2, node 22), m
        154    1.976E+01                                 F               0         X-component position of node 52 (blade 2, node 23), m
        155    9.261E+01                                 F               0         Y-component position of node 52 (blade 2, node 23), m
        156    1.698E+02                                 F               0         Z-component position of node 52 (blade 2, node 23), m
        157    1.988E+01                                 F               0         X-component position of node 53 (blade 2, node 24), m
        158    9.640E+01                                 F               0         Y-component position of node 53 (blade 2, node 24), m
        159    1.705E+02                                 F               0         Z-component position of node 53 (blade 2, node 24), m
        160    1.999E+01                                 F               0         X-component position of node 54 (blade 2, node 25), m
        161    1.002E+02                                 F               0         Y-component position of node 54 (blade 2, node 25), m
        162    1.713E+02                                 F               0         Z-component position of node 54 (blade 2, node 25), m
        163    2.011E+01                                 F               0         X-component position of node 55 (blade 2, node 26), m
        164    1.040E+02                                 F               0         Y-component position of node 55 (blade 2, node 26), m
        165    1.721E+02                                 F               0         Z-component position of node 55 (blade 2, node 26), m
        166    2.023E+01                                 F               0         X-component position of node 56 (blade 2, node 27), m
        167    1.078E+02                                 F               0         Y-component position of node 56 (blade 2, node 27), m
        168    1.728E+02                                 F               0         Z-component position of node 56 (blade 2, node 27), m
        169    2.033E+01                                 F               0         X-component position of node 57 (blade 2, node 28), m
        170    1.110E+02                                 F               0         Y-component position of node 57 (blade 2, node 28), m
        171    1.735E+02                                 F               0         Z-component position of node 57 (blade 2, node 28), m
        172    1.761E+01                                 F               0         X-component position of node 58 (blade 3, node 1), m
        173   -1.138E+01                                 F               0         Y-component position of node 58 (blade 3, node 1), m
        174    1.536E+02                                 F               0         Z-component position of node 58 (blade 3, node 1), m
        175    1.786E+01                                 F               0         X-component position of node 59 (blade 3, node 2), m
        176   -1.227E+01                                 F               0         Y-component position of node 59 (blade 3, node 2), m
        177    1.546E+02                                 F               0         Z-component position of node 59 (blade 3, node 2), m
        178    2.116E+01                                 F               0         X-component position of node 60 (blade 3, node 3), m
        179   -2.428E+01                                 F               0         Y-component position of node 60 (blade 3, node 3), m
        180    1.678E+02                                 F               0         Z-component position of node 60 (blade 3, node 3), m
        181    2.186E+01                                 F               0         X-component position of node 61 (blade 3, node 4), m
        182   -2.684E+01                                 F               0         Y-component position of node 61 (blade 3, node 4), m
        183    1.706E+02                                 F               0         Z-component position of node 61 (blade 3, node 4), m
        184    2.256E+01                                 F               0         X-component position of node 62 (blade 3, node 5), m
        185   -2.941E+01                                 F               0         Y-component position of node 62 (blade 3, node 5), m
        186    1.734E+02                                 F               0         Z-component position of node 62 (blade 3, node 5), m
        187    2.327E+01                                 F               0         X-component position of node 63 (blade 3, node 6), m
        188   -3.197E+01                                 F               0         Y-component position of node 63 (blade 3, node 6), m
        189    1.762E+02                                 F               0         Z-component position of node 63 (blade 3, node 6), m
        190    2.397E+01                                 F               0         X-component position of node 64 (blade 3, node 7), m
        191   -3.453E+01                                 F               0         Y-component position of node 64 (blade 3, node 7), m
        192    1.791E+02                                 F               0         Z-component position of node 64 (blade 3, node 7), m
        193    2.467E+01                                 F               0         X-component position of node 65 (blade 3, node 8), m
        194   -3.709E+01                                 F               0         Y-component position of node 65 (blade 3, node 8), m
        195    1.819E+02                                 F               0         Z-component position of node 65 (blade 3, node 8), m
        196    2.538E+01                                 F               0         X-component position of node 66 (blade 3, node 9), m
        197   -3.965E+01                                 F               0         Y-component position of node 66 (blade 3, node 9), m
        198    1.847E+02                                 F               0         Z-component position of node 66 (blade 3, node 9), m
        199    2.608E+01                                 F               0         X-component position of node 67 (blade 3, node 10), m
        200   -4.221E+01                                 F               0         Y-component position of node 67 (blade 3, node 10), m
        201    1.875E+02                                 F               0         Z-component position of node 67 (blade 3, node 10), m
        202    2.678E+01                                 F               0         X-component position of node 68 (blade 3, node 11), m
        203   -4.477E+01                                 F               0         Y-component position of node 68 (blade 3, node 11), m
        204    1.903E+02                                 F               0         Z-component position of node 68 (blade 3, node 11), m
        205    2.749E+01                                 F               0         X-component position of node 69 (blade 3, node 12), m
        206   -4.733E+01                                 F               0         Y-component position of node 69 (blade 3, node 12), m
        207    1.931E+02                                 F               0         Z-component position of node 69 (blade 3, node 12), m
        208    2.819E+01                                 F               0         X-component position of node 70 (blade 3, node 13), m
        209   -4.989E+01                                 F               0         Y-component position of node 70 (blade 3, node 13), m
        210    1.959E+02                                 F               0         Z-component position of node 70 (blade 3, node 13), m
        211    2.889E+01                                 F               0         X-component position of node 71 (blade 3, node 14), m