
Linearized model: Predictions were generated on 13-Feb-2024 at 12:12:09 using OpenFAST, compiled as a 64-bit application using single precision at commit v3.5.1
 linked with  NWTC Subroutine Library; ElastoDyn; InflowWind; AeroDyn; ServoDyn; HydroDyn; MAP++ (<1.20.10>, <Oct-20-2023>)

Description from the FAST input file: CCT-9 Campign 4 model. Input files to be run with OpenFAST 3.5.0. GitHub branch from Lu Wang (https://github.com/luwang00/openfast/tree/dev) compiled on March 7, 2023.

Simulation information:
   Simulation time:                   772.0000 s
   Rotor Speed:                         0.7918 rad/s
   Azimuth:                             1.2390 rad
   Wind Speed:                         24.0000 m/s
   Number of continuous states:         0
   Number of discrete states:           0
   Number of constraint states:         0
   Number of inputs:                 1746
   Number of outputs:                   4
   Jacobians included in this file?    No

Order of inputs:
     Column   Operating Point                                                   Rotating Frame? Derivative Order Description
   ---------- ---------------                                                   --------------- ---------------- -----------
          1     8.55843353271E+000                                                     F               0         Tower X translation displacement, node 1, m
          2    -1.82897710800E+000                                                     F               0         Tower Y translation displacement, node 1, m
          3    -2.14736923575E-001                                                     F               0         Tower Z translation displacement, node 1, m
          4     9.73285007477E+000                                                     F               0         Tower X translation displacement, node 2, m
          5    -2.50591969490E+000                                                     F               0         Tower Y translation displacement, node 2, m
          6    -2.89328038692E-001                                                     F               0         Tower Z translation displacement, node 2, m
          7     1.09250059128E+001                                                     F               0         Tower X translation displacement, node 3, m
          8    -3.19034242630E+000                                                     F               0         Tower Y translation displacement, node 3, m
          9    -3.66039305925E-001                                                     F               0         Tower Z translation displacement, node 3, m
         10     1.21304121017E+001                                                     F               0         Tower X translation displacement, node 4, m
         11    -3.88092327118E+000                                                     F               0         Tower Y translation displacement, node 4, m
         12    -4.44389224052E-001                                                     F               0         Tower Z translation displacement, node 4, m
         13     1.33465595245E+001                                                     F               0         Tower X translation displacement, node 5, m
         14    -4.57707262039E+000                                                     F               0         Tower Y translation displacement, node 5, m
         15    -5.24109899998E-001                                                     F               0         Tower Z translation displacement, node 5, m
         16     1.45711069107E+001                                                     F               0         Tower X translation displacement, node 6, m
         17    -5.27816534042E+000                                                     F               0         Tower Y translation displacement, node 6, m
         18    -6.04957938194E-001                                                     F               0         Tower Z translation displacement, node 6, m
         19     1.58015556335E+001                                                     F               0         Tower X translation displacement, node 7, m
         20    -5.98322963715E+000                                                     F               0         Tower Y translation displacement, node 7, m
         21    -6.86609327793E-001                                                     F               0         Tower Z translation displacement, node 7, m
         22     1.70367126465E+001                                                     F               0         Tower X translation displacement, node 8, m
         23    -6.69195127487E+000                                                     F               0         Tower Y translation displacement, node 8, m
         24    -7.68956542015E-001                                                     F               0         Tower Z translation displacement, node 8, m
         25     1.82750301361E+001                                                     F               0         Tower X translation displacement, node 9, m
         26    -7.40357446671E+000                                                     F               0         Tower Y translation displacement, node 9, m
         27    -8.51780712605E-001                                                     F               0         Tower Z translation displacement, node 9, m
         28     1.95152549744E+001                                                     F               0         Tower X translation displacement, node 10, m
         29    -8.11729717255E+000                                                     F               0         Tower Y translation displacement, node 10, m
         30    -9.34925675392E-001                                                     F               0         Tower Z translation displacement, node 10, m
         31     2.07564010620E+001                                                     F               0         Tower X translation displacement, node 11, m
         32    -8.83233261108E+000                                                     F               0         Tower Y translation displacement, node 11, m
         33    -1.01823747158E+000                                                     F               0         Tower Z translation displacement, node 11, m
         34     9.95456635952E-001,  -6.68065669015E-003,  -9.49810370803E-002         F               0         Tower X orientation angle, node 1, rad
         35     1.18228979409E-002,   9.98488187790E-001,   5.36804646254E-002         F               0         Tower Y orientation angle, node 1, rad
         36     9.44788157940E-002,  -5.45595288277E-002,   9.94030714035E-001         F               0         Tower Z orientation angle, node 1, rad
         37     9.95326280594E-001,  -6.60550640896E-003,  -9.63431149721E-002         F               0         Tower X orientation angle, node 2, rad
         38     1.18753276765E-002,   9.98457968235E-001,   5.42281083763E-002         F               0         Tower Y orientation angle, node 2, rad
         39     9.58363413811E-002,  -5.51187694073E-002,   9.93869841099E-001         F               0         Tower Z orientation angle, node 2, rad
         40     9.95211899281E-001,  -6.53979135677E-003,  -9.75219905376E-002         F               0         Tower X orientation angle, node 3, rad
         41     1.19246579707E-002,   9.98429596424E-001,   5.47367855906E-002         F               0         Tower Y orientation angle, node 3, rad
         42     9.70108732581E-002,  -5.56376166642E-002,   9.93726968765E-001         F               0         Tower Z orientation angle, node 3, rad
         43     9.95115995407E-001,  -6.48476695642E-003,  -9.84992012382E-002         F               0         Tower X orientation angle, node 4, rad
         44     1.19701763615E-002,   9.98403489590E-001,   5.52014596760E-002         F               0         Tower Y orientation angle, node 4, rad
         45     9.79839786887E-002,  -5.61109110713E-002,   9.93604898453E-001         F               0         Tower Z orientation angle, node 4, rad
         46     9.95038270950E-001,  -6.44012121484E-003,  -9.92842540145E-002         F               0         Tower X orientation angle, node 5, rad
         47     1.20114982128E-002,   9.98379766941E-001,   5.56202344596E-002         F               0         Tower Y orientation angle, node 5, rad
         48     9.87651869655E-002,  -5.65368160605E-002,   9.93503391743E-001         F               0         Tower Z orientation angle, node 5, rad
         49     9.94977653027E-001,  -6.40518870205E-003,  -9.98924002051E-002         F               0         Tower X orientation angle, node 6, rad
         50     1.20481736958E-002,   9.98358607292E-001,   5.59901222587E-002         F               0         Tower Y orientation angle, node 6, rad
         51     9.93698164821E-002,  -5.69124408066E-002,   9.93421673775E-001         F               0         Tower Z orientation angle, node 6, rad
         52     9.94933605194E-001,  -6.37967931107E-003,  -1.00331827998E-001         F               0         Tower X orientation angle, node 7, rad
         53     1.20792528614E-002,   9.98340666294E-001,   5.63027821481E-002         F               0         Tower Y orientation angle, node 7, rad
         54     9.98061522841E-002,  -5.72294630110E-002,   9.93359684944E-001         F               0         Tower Z orientation angle, node 7, rad
         55     9.94902610779E-001,  -6.36162515730E-003,  -1.00639559329E-001         F               0         Tower X orientation angle, node 8, rad
         56     1.21046956629E-002,   9.98325884342E-001,   5.65584599972E-002         F               0         Tower Y orientation angle, node 8, rad
         57     1.00111275911E-001,  -5.74883706868E-002,   9.93314087391E-001         F               0         Tower Z orientation angle, node 8, rad
         58     9.94882524014E-001,  -6.34980015457E-003,  -1.00838884711E-001         F               0         Tower X orientation angle, node 9, rad
         59     1.21241146699E-002,   9.98314619064E-001,   5.67536130548E-002         F               0         Tower Y orientation angle, node 9, rad
         60     1.00308552384E-001,  -5.76857589185E-002,   9.93282735348E-001         F               0         Tower Z orientation angle, node 9, rad
         61     9.94871020317E-001,  -6.34298892692E-003,  -1.00952334702E-001         F               0         Tower X orientation angle, node 10, rad
         62     1.21372174472E-002,   9.98306930065E-001,   5.68854250014E-002         F               0         Tower Y orientation angle, node 10, rad
         63     1.00420594215E-001,  -5.78189417720E-002,   9.93263661861E-001         F               0         Tower Z orientation angle, node 10, rad
         64     9.94865715504E-001,  -6.33977074176E-003,  -1.01005233824E-001         F               0         Tower X orientation angle, node 11, rad
         65     1.21445264667E-002,   9.98302638531E-001,   5.69590628147E-002         F               0         Tower Y orientation angle, node 11, rad
         66     1.00472681224E-001,  -5.78932762146E-002,   9.93254065514E-001         F               0         Tower Z orientation angle, node 11, rad
         67     3.36148706265E-003                                                     F               0         Tower X translation velocity, node 1, m/s
         68     3.18810110912E-003                                                     F               0         Tower Y translation velocity, node 1, m/s
         69     6.04568514973E-004                                                     F               0         Tower Z translation velocity, node 1, m/s
         70     4.75264200941E-003                                                     F               0         Tower X translation velocity, node 2, m/s
         71     3.95041471347E-003                                                     F               0         Tower Y translation velocity, node 2, m/s
         72     5.13588369358E-004                                                     F               0         Tower Z translation velocity, node 2, m/s
         73     5.63825573772E-003                                                     F               0         Tower X translation velocity, node 3, m/s
         74     4.26447298378E-003                                                     F               0         Tower Y translation velocity, node 3, m/s
         75     4.45134210167E-004                                                     F               0         Tower Z translation velocity, node 3, m/s
         76     5.94956520945E-003                                                     F               0         Tower X translation velocity, node 4, m/s
         77     4.22639213502E-003                                                     F               0         Tower Y translation velocity, node 4, m/s
         78     4.12466790294E-004                                                     F               0         Tower Z translation velocity, node 4, m/s
         79     5.59606449679E-003                                                     F               0         Tower X translation velocity, node 5, m/s
         80     3.88538092375E-003                                                     F               0         Tower Y translation velocity, node 5, m/s
         81     4.28199127782E-004                                                     F               0         Tower Z translation velocity, node 5, m/s
         82     4.51865233481E-003                                                     F               0         Tower X translation velocity, node 6, m/s
         83     3.28940944746E-003                                                     F               0         Tower Y translation velocity, node 6, m/s
         84     5.01696427818E-004                                                     F               0         Tower Z translation velocity, node 6, m/s
         85     2.75920145214E-003                                                     F               0         Tower X translation velocity, node 7, m/s
         86     2.49913893640E-003                                                     F               0         Tower Y translation velocity, node 7, m/s
         87     6.32707669865E-004                                                     F               0         Tower Z translation velocity, node 7, m/s
         88     2.83253553789E-004                                                     F               0         Tower X translation velocity, node 8, m/s
         89     1.53856375255E-003                                                     F               0         Tower Y translation velocity, node 8, m/s
         90     8.26397968922E-004                                                     F               0         Tower Z translation velocity, node 8, m/s
         91    -2.83328304067E-003                                                     F               0         Tower X translation velocity, node 9, m/s
         92     4.49703133199E-004                                                     F               0         Tower Y translation velocity, node 9, m/s
         93     1.07767444570E-003                                                     F               0         Tower Z translation velocity, node 9, m/s
         94    -6.46481709555E-003                                                     F               0         Tower X translation velocity, node 10, m/s
         95    -7.28045881260E-004                                                     F               0         Tower Y translation velocity, node 10, m/s
         96     1.37611303944E-003                                                     F               0         Tower Z translation velocity, node 10, m/s
         97    -1.04537867010E-002                                                     F               0         Tower X translation velocity, node 11, m/s
         98    -1.95990898646E-003                                                     F               0         Tower Y translation velocity, node 11, m/s
         99     1.70764478389E-003                                                     F               0         Tower Z translation velocity, node 11, m/s
        100     2.16005840302E+001                                                     F               0         Hub X translation displacement, node 1, m
        101    -9.21833324432E+000                                                     F               0         Hub Y translation displacement, node 1, m
        102     1.97186600417E-002                                                     F               0         Hub Z translation displacement, node 1, m
        103     9.78913486004E-001,  -2.53545120358E-004,  -2.04275235534E-001         F               0         Hub X orientation angle, node 1, rad
        104     1.96749061346E-001,   2.70113468170E-001,   9.42511796951E-001         F               0         Hub Y orientation angle, node 1, rad
        105     5.49385249615E-002,  -9.62828457355E-001,   2.64467597008E-001         F               0         Hub Z orientation angle, node 1, rad
        106     7.75173664093E-001                                                     F               0         Hub X rotation velocity, node 1, rad/s
        107    -5.30014745891E-004                                                     F               0         Hub Y rotation velocity, node 1, rad/s
        108    -1.61774277687E-001                                                     F               0         Hub Z rotation velocity, node 1, rad/s
        109     8.79505991936E-001,  -7.87303671241E-002,  -4.69330072403E-001         F               0         Blade root 1 X orientation angle, node 1, rad
        110     4.72705990076E-001,   2.58385151625E-001,   8.42488110065E-001         F               0         Blade root 1 Y orientation angle, node 1, rad
        111     5.49385249615E-002,  -9.62828457355E-001,   2.64467597008E-001         F               0         Blade root 1 Z orientation angle, node 1, rad
        112     9.51436102390E-001,   2.81291127205E-001,  -1.25078588724E-001         F               0         Blade root 2 X orientation angle, node 1, rad
        113     2.35841438174E-001,  -9.27159368992E-001,  -2.91126042604E-001         F               0         Blade root 2 Y orientation angle, node 1, rad
        114    -1.97858944535E-001,   2.47489094734E-001,  -9.48472976685E-001         F               0         Blade root 2 Z orientation angle, node 1, rad
        115     9.79085981846E-001,  -2.03288570046E-001,   8.02469626069E-003         F               0         Blade root 3 X orientation angle, node 1, rad
        116     1.44790858030E-001,   6.68553173542E-001,  -7.29432821274E-001         F               0         Blade root 3 Y orientation angle, node 1, rad
        117     1.42920419574E-001,   7.15339362621E-001,   6.84005379677E-001         F               0         Blade root 3 Z orientation angle, node 1, rad
        118     2.13258552551E+001                                                     F               0         Blade 1 X translation displacement, node 1, m
        119    -1.45524024963E+001                                                     F               0         Blade 1 Y translation displacement, node 1, m
        120    -4.02478981018E+000                                                     F               0         Blade 1 Z translation displacement, node 1, m
        121     2.12596569061E+001                                                     F               0         Blade 1 X translation displacement, node 2, m
        122    -1.58376874924E+001                                                     F               0         Blade 1 Y translation displacement, node 2, m
        123    -4.99934101105E+000                                                     F               0         Blade 1 Z translation displacement, node 2, m
        124     2.03594799042E+001                                                     F               0         Blade 1 X translation displacement, node 3, m
        125    -3.33153419495E+001                                                     F               0         Blade 1 Y translation displacement, node 3, m
        126    -1.82515811920E+001                                                     F               0         Blade 1 Z translation displacement, node 3, m
        127     2.01676921844E+001                                                     F               0         Blade 1 X translation displacement, node 4, m
        128    -3.70390586853E+001                                                     F               0         Blade 1 Y translation displacement, node 4, m
        129    -2.10750579834E+001                                                     F               0         Blade 1 Z translation displacement, node 4, m
        130     1.99758682251E+001                                                     F               0         Blade 1 X translation displacement, node 5, m
        131    -4.07634849548E+001                                                     F               0         Blade 1 Y translation displacement, node 5, m
        132    -2.38990554810E+001                                                     F               0         Blade 1 Z translation displacement, node 5, m
        133     1.97840785980E+001                                                     F               0         Blade 1 X translation displacement, node 6, m
        134    -4.44872169495E+001                                                     F               0         Blade 1 Y translation displacement, node 6, m
        135    -2.67225418091E+001                                                     F               0         Blade 1 Z translation displacement, node 6, m
        136     1.95922889709E+001                                                     F               0         Blade 1 X translation displacement, node 7, m
        137    -4.82109603882E+001                                                     F               0         Blade 1 Y translation displacement, node 7, m
        138    -2.95460262299E+001                                                     F               0         Blade 1 Z translation displacement, node 7, m
        139     1.94004650116E+001                                                     F               0         Blade 1 X translation displacement, node 8, m
        140    -5.19353752136E+001                                                     F               0         Blade 1 Y translation displacement, node 8, m
        141    -3.23700294495E+001                                                     F               0         Blade 1 Z translation displacement, node 8, m
        142     1.92086753845E+001                                                     F               0         Blade 1 X translation displacement, node 9, m
        143    -5.56591186523E+001                                                     F               0         Blade 1 Y translation displacement, node 9, m
        144    -3.51935081482E+001                                                     F               0         Blade 1 Z translation displacement, node 9, m
        145     1.90168876648E+001                                                     F               0         Blade 1 X translation displacement, node 10, m
        146    -5.93828506470E+001                                                     F               0         Blade 1 Y translation displacement, node 10, m
        147    -3.80169982910E+001                                                     F               0         Blade 1 Z translation displacement, node 10, m
        148     1.88250980377E+001                                                     F               0         Blade 1 X translation displacement, node 11, m
        149    -6.31065979004E+001                                                     F               0         Blade 1 Y translation displacement, node 11, m
        150    -4.08404808044E+001                                                     F               0         Blade 1 Z translation displacement, node 11, m
        151     1.86332759857E+001                                                     F               0         Blade 1 X translation displacement, node 12, m
        152    -6.68309936523E+001                                                     F               0         Blade 1 Y translation displacement, node 12, m
        153    -4.36644706726E+001                                                     F               0         Blade 1 Z translation displacement, node 12, m
        154     1.84414863586E+001                                                     F               0         Blade 1 X translation displacement, node 13, m
        155    -7.05547409058E+001                                                     F               0         Blade 1 Y translation displacement, node 13, m
        156    -4.64879531860E+001                                                     F               0         Blade 1 Z translation displacement, node 13, m
        157     1.82496967316E+001                                                     F               0         Blade 1 X translation displacement, node 14, m
        158    -7.42784729004E+001                                                     F               0         Blade 1 Y translation displacement, node 14, m
        159    -4.93114433289E+001                                                     F               0         Blade 1 Z translation displacement, node 14, m
        160     1.80578727722E+001                                                     F               0         Blade 1 X translation displacement, node 15, m
        161    -7.80028915405E+001                                                     F               0         Blade 1 Y translation displacement, node 15, m
        162    -5.21354408264E+001                                                     F               0         Blade 1 Z translation displacement, node 15, m
        163     1.78660831451E+001                                                     F               0         Blade 1 X translation displacement, node 16, m
        164    -8.17266311646E+001                                                     F               0         Blade 1 Y translation displacement, node 16, m
        165    -5.49589271545E+001                                                     F               0         Blade 1 Z translation displacement, node 16, m
        166     1.76742954254E+001                                                     F               0         Blade 1 X translation displacement, node 17, m
        167    -8.54503784180E+001                                                     F               0         Blade 1 Y translation displacement, node 17, m
        168    -5.77824096680E+001                                                     F               0         Blade 1 Z translation displacement, node 17, m
        169     1.74825057983E+001                                                     F               0         Blade 1 X translation displacement, node 18, m
        170    -8.91741180420E+001                                                     F               0         Blade 1 Y translation displacement, node 18, m
        171    -6.06058959961E+001                                                     F               0         Blade 1 Z translation displacement, node 18, m
        172     1.72906818390E+001                                                     F               0         Blade 1 X translation displacement, node 19, m
        173    -9.28985137939E+001                                                     F               0         Blade 1 Y translation displacement, node 19, m
        174    -6.34298858643E+001                                                     F               0         Blade 1 Z translation displacement, node 19, m
        175     1.70988922119E+001                                                     F               0         Blade 1 X translation displacement, node 20, m
        176    -9.66222610474E+001                                                     F               0         Blade 1 Y translation displacement, node 20, m
        177    -6.62533645630E+001                                                     F               0         Blade 1 Z translation displacement, node 20, m
        178     1.69071044922E+001                                                     F               0         Blade 1 X translation displacement, node 21, m
        179    -1.00346000671E+002                                                     F               0         Blade 1 Y translation displacement, node 21, m
        180    -6.90768585205E+001                                                     F               0         Blade 1 Z translation displacement, node 21, m
        181     1.67152805328E+001                                                     F               0         Blade 1 X translation displacement, node 22, m
        182    -1.04070411682E+002                                                     F               0         Blade 1 Y translation displacement, node 22, m
        183    -7.19008560181E+001                                                     F               0         Blade 1 Z translation displacement, node 22, m