
Linearized model: Predictions were generated on 13-Feb-2024 at 12:12:09 using OpenFAST, compiled as a 64-bit application using single precision at commit v3.5.1
 linked with  NWTC Subroutine Library; ElastoDyn; InflowWind; AeroDyn; ServoDyn; HydroDyn; MAP++ (<1.20.10>, <Oct-20-2023>)

Description from the FAST input file: CCT-9 Campign 4 model. Input files to be run with OpenFAST 3.5.0. GitHub branch from Lu Wang (https://github.com/luwang00/openfast/tree/dev) compiled on March 7, 2023.

Simulation information:
   Simulation time:                   771.5500 s
   Rotor Speed:                         0.7921 rad/s
   Azimuth:                             0.8826 rad
   Wind Speed:                         24.0000 m/s
   Number of continuous states:        22
   Number of discrete states:           0
   Number of constraint states:         0
   Number of inputs:                 1890
   Number of outputs:                  25
   Jacobians included in this file?    No

Order of continuous states:
   Row/Column Operating Point                                                   Rotating Frame? Derivative Order Description
   ---------- ---------------                                                   --------------- ---------------- -----------
          1     6.82464456558E+000                                                     F               2         Platform horizontal surge translation DOF (internal DOF index = DOF_Sg), m
          2    -8.28681409359E-001                                                     F               2         Platform horizontal sway translation DOF (internal DOF index = DOF_Sw), m
          3    -1.05677604675E-001                                                     F               2         Platform vertical heave translation DOF (internal DOF index = DOF_Hv), m
          4     5.44531829655E-002                                                     F               2         Platform roll tilt rotation DOF (internal DOF index = DOF_R), rad
          5     9.52103957534E-002                                                     F               2         Platform pitch tilt rotation DOF (internal DOF index = DOF_P), rad
          6    -9.31208860129E-003                                                     F               2         Platform yaw rotation DOF (internal DOF index = DOF_Y), rad
          7     5.50759553909E-001                                                     F               2         1st tower fore-aft bending mode DOF (internal DOF index = DOF_TFA1), m
          8     2.59052187204E-001                                                     F               2         1st tower side-to-side bending mode DOF (internal DOF index = DOF_TSS1), m
          9     1.49342545774E-003                                                     F               2         2nd tower fore-aft bending mode DOF (internal DOF index = DOF_TFA2), m
         10    -2.90715717711E-004                                                     F               2         2nd tower side-to-side bending mode DOF (internal DOF index = DOF_TSS2), m
         11     5.59500837326E+000                                                     F               2         Variable speed generator DOF (internal DOF index = DOF_GeAz), rad
         12     2.86146253347E-003                                                     F               2         First time derivative of Platform horizontal surge translation DOF (internal DOF index = DOF_Sg), m/s
         13    -3.62475024303E-004                                                     F               2         First time derivative of Platform horizontal sway translation DOF (internal DOF index = DOF_Sw), m/s
         14     1.16103561595E-003                                                     F               2         First time derivative of Platform vertical heave translation DOF (internal DOF index = DOF_Hv), m/s
         15     5.06436517753E-005                                                     F               2         First time derivative of Platform roll tilt rotation DOF (internal DOF index = DOF_R), rad/s
         16     2.43316535489E-004                                                     F               2         First time derivative of Platform pitch tilt rotation DOF (internal DOF index = DOF_P), rad/s
         17     1.04094342532E-005                                                     F               2         First time derivative of Platform yaw rotation DOF (internal DOF index = DOF_Y), rad/s
         18    -5.69689944386E-002                                                     F               2         First time derivative of 1st tower fore-aft bending mode DOF (internal DOF index = DOF_TFA1), m/s
         19    -1.06869088486E-002                                                     F               2         First time derivative of 1st tower side-to-side bending mode DOF (internal DOF index = DOF_TSS1), m/s
         20    -5.06100477651E-005                                                     F               2         First time derivative of 2nd tower fore-aft bending mode DOF (internal DOF index = DOF_TFA2), m/s
         21     6.05446803092E-006                                                     F               2         First time derivative of 2nd tower side-to-side bending mode DOF (internal DOF index = DOF_TSS2), m/s
         22     7.92140543461E-001                                                     F               2         First time derivative of Variable speed generator DOF (internal DOF index = DOF_GeAz), rad/s

Order of continuous state derivatives:
   Row/Column Operating Point                                                   Rotating Frame? Derivative Order Description
   ---------- ---------------                                                   --------------- ---------------- -----------
          1     2.86146253347E-003                                                     F               2         First time derivative of Platform horizontal surge translation DOF (internal DOF index = DOF_Sg), m/s
          2    -3.62475024303E-004                                                     F               2         First time derivative of Platform horizontal sway translation DOF (internal DOF index = DOF_Sw), m/s
          3     1.16103561595E-003                                                     F               2         First time derivative of Platform vertical heave translation DOF (internal DOF index = DOF_Hv), m/s
          4     5.06436517753E-005                                                     F               2         First time derivative of Platform roll tilt rotation DOF (internal DOF index = DOF_R), rad/s
          5     2.43316535489E-004                                                     F               2         First time derivative of Platform pitch tilt rotation DOF (internal DOF index = DOF_P), rad/s
          6     1.04094342532E-005                                                     F               2         First time derivative of Platform yaw rotation DOF (internal DOF index = DOF_Y), rad/s
          7    -5.69689944386E-002                                                     F               2         First time derivative of 1st tower fore-aft bending mode DOF (internal DOF index = DOF_TFA1), m/s
          8    -1.06869088486E-002                                                     F               2         First time derivative of 1st tower side-to-side bending mode DOF (internal DOF index = DOF_TSS1), m/s
          9    -5.06100477651E-005                                                     F               2         First time derivative of 2nd tower fore-aft bending mode DOF (internal DOF index = DOF_TFA2), m/s
         10     6.05446803092E-006                                                     F               2         First time derivative of 2nd tower side-to-side bending mode DOF (internal DOF index = DOF_TSS2), m/s
         11     7.92140543461E-001                                                     F               2         First time derivative of Variable speed generator DOF (internal DOF index = DOF_GeAz), rad/s
         12     1.25632691197E-003                                                     F               2         First time derivative of First time derivative of Platform horizontal surge translation DOF (internal DOF index = DOF_Sg), m/s/s
         13     4.45165438578E-003                                                     F               2         First time derivative of First time derivative of Platform horizontal sway translation DOF (internal DOF index = DOF_Sw), m/s/s
         14    -1.27430690918E-003                                                     F               2         First time derivative of First time derivative of Platform vertical heave translation DOF (internal DOF index = DOF_Hv), m/s/s
         15    -2.59204040049E-004                                                     F               2         First time derivative of First time derivative of Platform roll tilt rotation DOF (internal DOF index = DOF_R), rad/s/s
         16     4.50366678706E-005                                                     F               2         First time derivative of First time derivative of Platform pitch tilt rotation DOF (internal DOF index = DOF_P), rad/s/s
         17     8.85744429979E-006                                                     F               2         First time derivative of First time derivative of Platform yaw rotation DOF (internal DOF index = DOF_Y), rad/s/s
         18    -4.08637616783E-003                                                     F               2         First time derivative of First time derivative of 1st tower fore-aft bending mode DOF (internal DOF index = DOF_TFA1), m/s/s
         19     4.33073490858E-002                                                     F               2         First time derivative of First time derivative of 1st tower side-to-side bending mode DOF (internal DOF index = DOF_TSS1), m/s/s
         20     1.14149891306E-003                                                     F               2         First time derivative of First time derivative of 2nd tower fore-aft bending mode DOF (internal DOF index = DOF_TFA2), m/s/s
         21    -3.86753526982E-005                                                     F               2         First time derivative of First time derivative of 2nd tower side-to-side bending mode DOF (internal DOF index = DOF_TSS2), m/s/s
         22    -3.75487106794E-005                                                     F               2         First time derivative of First time derivative of Variable speed generator DOF (internal DOF index = DOF_GeAz), rad/s/s

Order of inputs:
     Column   Operating Point                                                   Rotating Frame? Derivative Order Description
   ---------- ---------------                                                   --------------- ---------------- -----------
          1     4.25174072266E+002                                                     F               0         Blade 1 X force, node 1, N
          2     1.50010116577E+002                                                     F               0         Blade 1 Y force, node 1, N
          3     1.21554710388E+002                                                     F               0         Blade 1 Z force, node 1, N
          4     1.59907202148E+003                                                     F               0         Blade 1 X force, node 2, N
          5     2.40112838745E+002                                                     F               0         Blade 1 Y force, node 2, N
          6     3.04289150238E+000                                                     F               0         Blade 1 Z force, node 2, N
          7     1.77057653809E+003                                                     F               0         Blade 1 X force, node 3, N
          8    -2.74283351898E+001                                                     F               0         Blade 1 Y force, node 3, N
          9    -4.07622985840E+002                                                     F               0         Blade 1 Z force, node 3, N
         10     2.10996655273E+003                                                     F               0         Blade 1 X force, node 4, N
         11    -2.67470153809E+002                                                     F               0         Blade 1 Y force, node 4, N
         12    -8.14760314941E+002                                                     F               0         Blade 1 Z force, node 4, N
         13     2.44937451172E+003                                                     F               0         Blade 1 X force, node 5, N
         14    -5.07516387939E+002                                                     F               0         Blade 1 Y force, node 5, N
         15    -1.22190771484E+003                                                     F               0         Blade 1 Z force, node 5, N
         16     2.78876831055E+003                                                     F               0         Blade 1 X force, node 6, N
         17    -7.47560852051E+002                                                     F               0         Blade 1 Y force, node 6, N
         18    -1.62904931641E+003                                                     F               0         Blade 1 Z force, node 6, N
         19     3.12814111328E+003                                                     F               0         Blade 1 X force, node 7, N
         20    -9.87598754883E+002                                                     F               0         Blade 1 Y force, node 7, N
         21    -2.03617749023E+003                                                     F               0         Blade 1 Z force, node 7, N
         22     3.46753125000E+003                                                     F               0         Blade 1 X force, node 8, N
         23    -1.22764050293E+003                                                     F               0         Blade 1 Y force, node 8, N
         24    -2.44331469727E+003                                                     F               0         Blade 1 Z force, node 8, N
         25     3.80692187500E+003                                                     F               0         Blade 1 X force, node 9, N
         26    -1.46768237305E+003                                                     F               0         Blade 1 Y force, node 9, N
         27    -2.85045214844E+003                                                     F               0         Blade 1 Z force, node 9, N
         28     4.14631152344E+003                                                     F               0         Blade 1 X force, node 10, N
         29    -1.70772436523E+003                                                     F               0         Blade 1 Y force, node 10, N
         30    -3.25758959961E+003                                                     F               0         Blade 1 Z force, node 10, N
         31     4.48570166016E+003                                                     F               0         Blade 1 X force, node 11, N
         32    -1.94776599121E+003                                                     F               0         Blade 1 Y force, node 11, N
         33    -3.66472729492E+003                                                     F               0         Blade 1 Z force, node 11, N
         34     4.82512548828E+003                                                     F               0         Blade 1 X force, node 12, N
         35    -2.18782373047E+003                                                     F               0         Blade 1 Y force, node 12, N
         36    -4.07189306641E+003                                                     F               0         Blade 1 Z force, node 12, N
         37     5.16451953125E+003                                                     F               0         Blade 1 X force, node 13, N
         38    -2.42786791992E+003                                                     F               0         Blade 1 Y force, node 13, N
         39    -4.47903466797E+003                                                     F               0         Blade 1 Z force, node 13, N
         40     5.50387597656E+003                                                     F               0         Blade 1 X force, node 14, N
         41    -2.66789501953E+003                                                     F               0         Blade 1 Y force, node 14, N
         42    -4.88614453125E+003                                                     F               0         Blade 1 Z force, node 14, N
         43     5.84330566406E+003                                                     F               0         Blade 1 X force, node 15, N
         44    -2.90795629883E+003                                                     F               0         Blade 1 Y force, node 15, N
         45    -5.29331689453E+003                                                     F               0         Blade 1 Z force, node 15, N
         46     6.18265625000E+003                                                     F               0         Blade 1 X force, node 16, N
         47    -3.14797753906E+003                                                     F               0         Blade 1 Y force, node 16, N
         48    -5.70041796875E+003                                                     F               0         Blade 1 Z force, node 16, N
         49     7.55018994141E+003                                                     F               0         Blade 1 X force, node 17, N
         50    -3.91330712891E+003                                                     F               0         Blade 1 Y force, node 17, N
         51    -7.05802197266E+003                                                     F               0         Blade 1 Z force, node 17, N
         52     5.65490771484E+003                                                     F               0         Blade 1 X force, node 18, N
         53    -2.88488500977E+003                                                     F               0         Blade 1 Y force, node 18, N
         54    -5.22170410156E+003                                                     F               0         Blade 1 Z force, node 18, N
         55     6.79728564453E+003                                                     F               0         Blade 1 X force, node 19, N
         56    -3.37509741211E+003                                                     F               0         Blade 1 Y force, node 19, N
         57    -6.14683886719E+003                                                     F               0         Blade 1 Z force, node 19, N
         58     5.68346875000E+003                                                     F               0         Blade 1 X force, node 20, N
         59    -2.74763012695E+003                                                     F               0         Blade 1 Y force, node 20, N
         60    -5.03532421875E+003                                                     F               0         Blade 1 Z force, node 20, N
         61     8.19831250000E+003                                                     F               0         Blade 1 X force, node 21, N
         62    -3.84158422852E+003                                                     F               0         Blade 1 Y force, node 21, N
         63    -7.09265771484E+003                                                     F               0         Blade 1 Z force, node 21, N
         64     7.05427539062E+003                                                     F               0         Blade 1 X force, node 22, N
         65    -3.20502807617E+003                                                     F               0         Blade 1 Y force, node 22, N
         66    -5.96210595703E+003                                                     F               0         Blade 1 Z force, node 22, N
         67     7.08064453125E+003                                                     F               0         Blade 1 X force, node 23, N
         68    -3.12499633789E+003                                                     F               0         Blade 1 Y force, node 23, N
         69    -5.85545556641E+003                                                     F               0         Blade 1 Z force, node 23, N
         70     7.22832128906E+003                                                     F               0         Blade 1 X force, node 24, N
         71    -3.09879492188E+003                                                     F               0         Blade 1 Y force, node 24, N
         72    -5.84953271484E+003                                                     F               0         Blade 1 Z force, node 24, N
         73     7.23558300781E+003                                                     F               0         Blade 1 X force, node 25, N
         74    -3.01696264648E+003                                                     F               0         Blade 1 Y force, node 25, N
         75    -5.73637500000E+003                                                     F               0         Blade 1 Z force, node 25, N
         76     7.28087207031E+003                                                     F               0         Blade 1 X force, node 26, N
         77    -2.95282958984E+003                                                     F               0         Blade 1 Y force, node 26, N
         78    -5.65594873047E+003                                                     F               0         Blade 1 Z force, node 26, N
         79     8.51679003906E+003                                                     F               0         Blade 1 X force, node 27, N
         80    -3.35296508789E+003                                                     F               0         Blade 1 Y force, node 27, N
         81    -6.47436279297E+003                                                     F               0         Blade 1 Z force, node 27, N
         82     6.14195361328E+003                                                     F               0         Blade 1 X force, node 28, N
         83    -2.35167602539E+003                                                     F               0         Blade 1 Y force, node 28, N
         84    -4.57607470703E+003                                                     F               0         Blade 1 Z force, node 28, N
         85     7.32810400391E+003                                                     F               0         Blade 1 X force, node 29, N
         86    -2.74083251953E+003                                                     F               0         Blade 1 Y force, node 29, N
         87    -5.36872607422E+003                                                     F               0         Blade 1 Z force, node 29, N
         88     6.08473535156E+003                                                     F               0         Blade 1 X force, node 30, N
         89    -2.22196850586E+003                                                     F               0         Blade 1 Y force, node 30, N
         90    -4.38238427734E+003                                                     F               0         Blade 1 Z force, node 30, N
         91     8.53512500000E+003                                                     F               0         Blade 1 X force, node 31, N
         92    -3.03117285156E+003                                                     F               0         Blade 1 Y force, node 31, N
         93    -6.02725878906E+003                                                     F               0         Blade 1 Z force, node 31, N
         94     7.25972851562E+003                                                     F               0         Blade 1 X force, node 32, N
         95    -2.50997729492E+003                                                     F               0         Blade 1 Y force, node 32, N
         96    -5.03097167969E+003                                                     F               0         Blade 1 Z force, node 32, N
         97     7.21715429688E+003                                                     F               0         Blade 1 X force, node 33, N
         98    -2.43132373047E+003                                                     F               0         Blade 1 Y force, node 33, N
         99    -4.91187744141E+003                                                     F               0         Blade 1 Z force, node 33, N
        100     7.16875097656E+003                                                     F               0         Blade 1 X force, node 34, N
        101    -2.35236010742E+003                                                     F               0         Blade 1 Y force, node 34, N
        102    -4.79113378906E+003                                                     F               0         Blade 1 Z force, node 34, N
        103     7.08964013672E+003                                                     F               0         Blade 1 X force, node 35, N
        104    -2.26967309570E+003                                                     F               0         Blade 1 Y force, node 35, N
        105    -4.65876855469E+003                                                     F               0         Blade 1 Z force, node 35, N
        106     7.00096484375E+003                                                     F               0         Blade 1 X force, node 36, N
        107    -2.18544873047E+003                                                     F               0         Blade 1 Y force, node 36, N
        108    -4.52225585938E+003                                                     F               0         Blade 1 Z force, node 36, N
        109     8.06811914062E+003                                                     F               0         Blade 1 X force, node 37, N
        110    -2.44898828125E+003                                                     F               0         Blade 1 Y force, node 37, N
        111    -5.11406835938E+003                                                     F               0         Blade 1 Z force, node 37, N
        112     5.64835644531E+003                                                     F               0         Blade 1 X force, node 38, N
        113    -1.67005297852E+003                                                     F               0         Blade 1 Y force, node 38, N
        114    -3.51799658203E+003                                                     F               0         Blade 1 Z force, node 38, N
        115     6.68626562500E+003                                                     F               0         Blade 1 X force, node 39, N
        116    -1.93346398926E+003                                                     F               0         Blade 1 Y force, node 39, N
        117    -4.10353076172E+003                                                     F               0         Blade 1 Z force, node 39, N
        118     5.50650097656E+003                                                     F               0         Blade 1 X force, node 40, N
        119    -1.55522253418E+003                                                     F               0         Blade 1 Y force, node 40, N
        120    -3.32750610352E+003                                                     F               0         Blade 1 Z force, node 40, N
        121     7.49883496094E+003                                                     F               0         Blade 1 X force, node 41, N
        122    -2.05978710938E+003                                                     F               0         Blade 1 Y force, node 41, N
        123    -4.44997851562E+003                                                     F               0         Blade 1 Z force, node 41, N
        124     6.29238720703E+003                                                     F               0         Blade 1 X force, node 42, N
        125    -1.68235900879E+003                                                     F               0         Blade 1 Y force, node 42, N
        126    -3.66952954102E+003                                                     F               0         Blade 1 Z force, node 42, N
        127     6.14524121094E+003                                                     F               0         Blade 1 X force, node 43, N
        128    -1.59911840820E+003                                                     F               0         Blade 1 Y force, node 43, N
        129    -3.52220263672E+003                                                     F               0         Blade 1 Z force, node 43, N
        130     6.02546044922E+003                                                     F               0         Blade 1 X force, node 44, N
        131    -1.52400939941E+003                                                     F               0         Blade 1 Y force, node 44, N
        132    -3.39197705078E+003                                                     F               0         Blade 1 Z force, node 44, N
        133     5.79579248047E+003                                                     F               0         Blade 1 X force, node 45, N
        134    -1.42663330078E+003                                                     F               0         Blade 1 Y force, node 45, N