
Linearized model: Predictions were generated on 13-Feb-2024 at 12:12:09 using OpenFAST, compiled as a 64-bit application using single precision at commit v3.5.1
 linked with  NWTC Subroutine Library; ElastoDyn; InflowWind; AeroDyn; ServoDyn; HydroDyn; MAP++ (<1.20.10>, <Oct-20-2023>)

Description from the FAST input file: CCT-9 Campign 4 model. Input files to be run with OpenFAST 3.5.0. GitHub branch from Lu Wang (https://github.com/luwang00/openfast/tree/dev) compiled on March 7, 2023.

Simulation information:
   Simulation time:                   773.3250 s
   Rotor Speed:                         0.7918 rad/s
   Azimuth:                             2.2878 rad
   Wind Speed:                         24.0000 m/s
   Number of continuous states:         0
   Number of discrete states:           0
   Number of constraint states:         0
   Number of inputs:                 1746
   Number of outputs:                   4
   Jacobians included in this file?    No

Order of inputs:
     Column   Operating Point                                                   Rotating Frame? Derivative Order Description
   ---------- ---------------                                                   --------------- ---------------- -----------
          1     8.55141162872E+000                                                     F               0         Tower X translation displacement, node 1, m
          2    -1.82492172718E+000                                                     F               0         Tower Y translation displacement, node 1, m
          3    -2.14143142104E-001                                                     F               0         Tower Z translation displacement, node 1, m
          4     9.72409629822E+000                                                     F               0         Tower X translation displacement, node 2, m
          5    -2.50090146065E+000                                                     F               0         Tower Y translation displacement, node 2, m
          6    -2.88515985012E-001                                                     F               0         Tower Z translation displacement, node 2, m
          7     1.09156017303E+001                                                     F               0         Tower X translation displacement, node 3, m
          8    -3.18484783173E+000                                                     F               0         Tower Y translation displacement, node 3, m
          9    -3.65137547255E-001                                                     F               0         Tower Z translation displacement, node 3, m
         10     1.21212530136E+001                                                     F               0         Tower X translation displacement, node 4, m
         11    -3.87534952164E+000                                                     F               0         Tower Y translation displacement, node 4, m
         12    -4.43507045507E-001                                                     F               0         Tower Z translation displacement, node 4, m
         13     1.33384609222E+001                                                     F               0         Tower X translation displacement, node 5, m
         14    -4.57177543640E+000                                                     F               0         Tower Y translation displacement, node 5, m
         15    -5.23348569870E-001                                                     F               0         Tower Z translation displacement, node 5, m
         16     1.45648012161E+001                                                     F               0         Tower X translation displacement, node 6, m
         17    -5.27345705032E+000                                                     F               0         Tower Y translation displacement, node 6, m
         18    -6.04409217834E-001                                                     F               0         Tower Z translation displacement, node 6, m
         19     1.57976350784E+001                                                     F               0         Tower X translation displacement, node 7, m
         20    -5.97935867310E+000                                                     F               0         Tower Y translation displacement, node 7, m
         21    -6.86348021030E-001                                                     F               0         Tower Z translation displacement, node 7, m
         22     1.70357284546E+001                                                     F               0         Tower X translation displacement, node 8, m
         23    -6.68914508820E+000                                                     F               0         Tower Y translation displacement, node 8, m
         24    -7.69052565098E-001                                                     F               0         Tower Z translation displacement, node 8, m
         25     1.82774238586E+001                                                     F               0         Tower X translation displacement, node 9, m
         26    -7.40201139450E+000                                                     F               0         Tower Y translation displacement, node 9, m
         27    -8.52290153503E-001                                                     F               0         Tower Z translation displacement, node 9, m
         28     1.95213508606E+001                                                     F               0         Tower X translation displacement, node 10, m
         29    -8.11710548401E+000                                                     F               0         Tower Y translation displacement, node 10, m
         30    -9.35889780521E-001                                                     F               0         Tower Z translation displacement, node 10, m
         31     2.07664089203E+001                                                     F               0         Tower X translation displacement, node 11, m
         32    -8.83359336853E+000                                                     F               0         Tower Y translation displacement, node 11, m
         33    -1.01968228817E+000                                                     F               0         Tower Z translation displacement, node 11, m
         34     9.95473027229E-001,  -6.70367199928E-003,  -9.48075205088E-002         F               0         Tower X orientation angle, node 1, rad
         35     1.18276271969E-002,   9.98493075371E-001,   5.35876639187E-002         F               0         Tower Y orientation angle, node 1, rad
         36     9.43054184318E-002,  -5.44664226472E-002,   9.94052231312E-001         F               0         Tower Z orientation angle, node 1, rad
         37     9.95335102081E-001,  -6.62416778505E-003,  -9.62505042553E-002         F               0         Tower X orientation angle, node 2, rad
         38     1.18834022433E-002,   9.98460948467E-001,   5.41710816324E-002         F               0         Tower Y orientation angle, node 2, rad
         39     9.57435294986E-002,  -5.50621636212E-002,   9.93881940842E-001         F               0         Tower Z orientation angle, node 2, rad
         40     9.95213449001E-001,  -6.55429577455E-003,  -9.75048616529E-002         F               0         Tower X orientation angle, node 3, rad
         41     1.19358971715E-002,   9.98430788517E-001,   5.47127053142E-002         F               0         Tower Y orientation angle, node 3, rad
         42     9.69932526350E-002,  -5.56146316230E-002,   9.93730008602E-001         F               0         Tower Z orientation angle, node 3, rad
         43     9.95110750198E-001,  -6.49537611753E-003,  -9.85514298081E-002         F               0         Tower X orientation angle, node 4, rad
         44     1.19843417779E-002,   9.98403012753E-001,   5.52071556449E-002         F               0         Tower Y orientation angle, node 4, rad
         45     9.80354472995E-002,  -5.61183094978E-002,   9.93599414825E-001         F               0         Tower Z orientation angle, node 4, rad
         46     9.95026707649E-001,  -6.44713873044E-003,  -9.93993878365E-002         F               0         Tower X orientation angle, node 5, rad
         47     1.20283197612E-002,   9.98377740383E-001,   5.56524582207E-002         F               0         Tower Y orientation angle, node 5, rad
         48     9.88793373108E-002,  -5.65712936223E-002,   9.93490099907E-001         F               0         Tower Z orientation angle, node 5, rad
         49     9.94960427284E-001,  -6.40896847472E-003,  -1.00063487887E-001         F               0         Tower X orientation angle, node 6, rad
         50     1.20673514903E-002,   9.98355269432E-001,   5.60455098748E-002         F               0         Tower Y orientation angle, node 6, rad
         51     9.95397195220E-002,  -5.69705627859E-002,   9.93401348591E-001         F               0         Tower Z orientation angle, node 6, rad
         52     9.94911491871E-001,  -6.38067070395E-003,  -1.00550621748E-001         F               0         Tower X orientation angle, node 7, rad
         53     1.21004218236E-002,   9.98336195946E-001,   5.63775114715E-002         F               0         Tower Y orientation angle, node 7, rad
         54     1.00023597479E-001,  -5.73073402047E-002,   9.93333339691E-001         F               0         Tower Z orientation angle, node 7, rad
         55     9.94876444340E-001,  -6.36029709131E-003,  -1.00897729397E-001         F               0         Tower X orientation angle, node 8, rad
         56     1.21274916455E-002,   9.98320519924E-001,   5.66488541663E-002         F               0         Tower Y orientation angle, node 8, rad
         57     1.00367970765E-001,  -5.75822480023E-002,   9.93282735348E-001         F               0         Tower Z orientation angle, node 8, rad
         58     9.94853258133E-001,  -6.34667184204E-003,  -1.01127482951E-001         F               0         Tower X orientation angle, node 9, rad
         59     1.21481502429E-002,   9.98308479786E-001,   5.68558610976E-002         F               0         Tower Y orientation angle, node 9, rad
         60     1.00595578551E-001,  -5.77917508781E-002,   9.93247509003E-001         F               0         Tower Z orientation angle, node 9, rad
         61     9.94839608669E-001,  -6.33861683309E-003,  -1.01261876523E-001         F               0         Tower X orientation angle, node 10, rad
         62     1.21620893478E-002,   9.98300373554E-001,   5.69956302643E-002         F               0         Tower Y orientation angle, node 10, rad
         63     1.00728489459E-001,  -5.79330697656E-002,   9.93225812912E-001         F               0         Tower Z orientation angle, node 10, rad
         64     9.94832992554E-001,  -6.33467594162E-003,  -1.01326942444E-001         F               0         Tower X orientation angle, node 11, rad
         65     1.21698658913E-002,   9.98295783997E-001,   5.70737086236E-002         F               0         Tower Y orientation angle, node 11, rad
         66     1.00792713463E-001,  -5.80119453371E-002,   9.93214726448E-001         F               0         Tower Z orientation angle, node 11, rad
         67    -5.28473407030E-003                                                     F               0         Tower X translation velocity, node 1, m/s
         68    -1.29946670495E-003                                                     F               0         Tower Y translation velocity, node 1, m/s
         69    -5.20916248206E-004                                                     F               0         Tower Z translation velocity, node 1, m/s
         70    -6.58136839047E-003                                                     F               0         Tower X translation velocity, node 2, m/s
         71    -1.84478936717E-003                                                     F               0         Tower Y translation velocity, node 2, m/s
         72    -4.27266641054E-004                                                     F               0         Tower Z translation velocity, node 2, m/s
         73    -6.80027715862E-003                                                     F               0         Tower X translation velocity, node 3, m/s
         74    -1.99906155467E-003                                                     F               0         Tower Y translation velocity, node 3, m/s
         75    -4.14601963712E-004                                                     F               0         Tower Z translation velocity, node 3, m/s
         76    -6.22256519273E-003                                                     F               0         Tower X translation velocity, node 4, m/s
         77    -1.83881621342E-003                                                     F               0         Tower Y translation velocity, node 4, m/s
         78    -4.62293537566E-004                                                     F               0         Tower Z translation velocity, node 4, m/s
         79    -5.00772753730E-003                                                     F               0         Tower X translation velocity, node 5, m/s
         80    -1.40103732701E-003                                                     F               0         Tower Y translation velocity, node 5, m/s
         81    -5.57880266570E-004                                                     F               0         Tower Z translation velocity, node 5, m/s
         82    -3.30302608199E-003                                                     F               0         Tower X translation velocity, node 6, m/s
         83    -7.23052420653E-004                                                     F               0         Tower Y translation velocity, node 6, m/s
         84    -6.89399486873E-004                                                     F               0         Tower Z translation velocity, node 6, m/s
         85    -1.26179051585E-003                                                     F               0         Tower X translation velocity, node 7, m/s
         86     1.43157245475E-004                                                     F               0         Tower Y translation velocity, node 7, m/s
         87    -8.44569178298E-004                                                     F               0         Tower Z translation velocity, node 7, m/s
         88     1.04087986983E-003                                                     F               0         Tower X translation velocity, node 8, m/s
         89     1.17893307470E-003                                                     F               0         Tower Y translation velocity, node 8, m/s
         90    -1.01691577584E-003                                                     F               0         Tower Z translation velocity, node 8, m/s
         91     3.51192778908E-003                                                     F               0         Tower X translation velocity, node 9, m/s
         92     2.34617292881E-003                                                     F               0         Tower Y translation velocity, node 9, m/s
         93    -1.19909527712E-003                                                     F               0         Tower Z translation velocity, node 9, m/s
         94     6.07939995825E-003                                                     F               0         Tower X translation velocity, node 10, m/s
         95     3.60688543878E-003                                                     F               0         Tower Y translation velocity, node 10, m/s
         96    -1.38585839886E-003                                                     F               0         Tower Z translation velocity, node 10, m/s
         97     8.68889875710E-003                                                     F               0         Tower X translation velocity, node 11, m/s
         98     4.92555927485E-003                                                     F               0         Tower Y translation velocity, node 11, m/s
         99    -1.57364725601E-003                                                     F               0         Tower Z translation velocity, node 11, m/s
        100     2.16134567261E+001                                                     F               0         Hub X translation displacement, node 1, m
        101    -9.22058010101E+000                                                     F               0         Hub Y translation displacement, node 1, m
        102     2.14396342635E-002                                                     F               0         Hub Z translation displacement, node 1, m
        103     9.78847503662E-001,  -2.36074221903E-004,  -2.04591065645E-001         F               0         Hub X orientation angle, node 1, rad
        104     1.45948499441E-001,  -6.99985027313E-001,   6.99085116386E-001         F               0         Hub Y orientation angle, node 1, rad
        105    -1.43375724554E-001,  -7.14157462120E-001,  -6.85144126415E-001         F               0         Hub Z orientation angle, node 1, rad
        106     7.74909079075E-001                                                     F               0         Hub X rotation velocity, node 1, rad/s
        107     2.50101657002E-005                                                     F               0         Hub Y rotation velocity, node 1, rad/s
        108    -1.61963135004E-001                                                     F               0         Hub Z rotation velocity, node 1, rad/s
        109     8.94204556942E-001,   2.03170493245E-001,  -3.98898482323E-001         F               0         Blade root 1 X orientation angle, node 1, rad
        110     4.24077391624E-001,  -6.69851362705E-001,   6.09473109245E-001         F               0         Blade root 1 Y orientation angle, node 1, rad
        111    -1.43375724554E-001,  -7.14157462120E-001,  -6.85144126415E-001         F               0         Blade root 1 Z orientation angle, node 1, rad
        112     9.93896961212E-001,   7.77887552977E-002,   7.82157033682E-002         F               0         Blade root 2 X orientation angle, node 1, rad
        113     9.57909375429E-002,  -2.56970226765E-001,  -9.61660206318E-001         F               0         Blade root 2 Y orientation angle, node 1, rad
        114    -5.47072440386E-002,   9.63283538818E-001,  -2.62853384018E-001         F               0         Blade root 2 Z orientation angle, node 1, rad
        115     9.21737968922E-001,  -2.81636923552E-001,  -2.66607969999E-001         F               0         Blade root 3 X orientation angle, node 1, rad
        116     3.33410114050E-001,   9.26615774632E-001,   1.73841491342E-001         F               0         Blade root 3 Y orientation angle, node 1, rad
        117     1.98082968593E-001,  -2.49126091599E-001,   9.47997510433E-001         F               0         Blade root 3 Z orientation angle, node 1, rad
        118     2.02400665283E+001                                                     F               0         Blade 1 X translation displacement, node 1, m
        119    -1.31770124435E+001                                                     F               0         Blade 1 Y translation displacement, node 1, m
        120    -9.28391742706E+000                                                     F               0         Blade 1 Z translation displacement, node 1, m
        121     1.99091377258E+001                                                     F               0         Blade 1 X translation displacement, node 2, m
        122    -1.41303453445E+001                                                     F               0         Blade 1 Y translation displacement, node 2, m
        123    -1.15261116028E+001                                                     F               0         Blade 1 Z translation displacement, node 2, m
        124     1.54090805054E+001                                                     F               0         Blade 1 X translation displacement, node 3, m
        125    -2.70940227509E+001                                                     F               0         Blade 1 Y translation displacement, node 3, m
        126    -4.20160903931E+001                                                     F               0         Blade 1 Z translation displacement, node 3, m
        127     1.44503164291E+001                                                     F               0         Blade 1 X translation displacement, node 4, m
        128    -2.98560104370E+001                                                     F               0         Blade 1 Y translation displacement, node 4, m
        129    -4.85121688843E+001                                                     F               0         Blade 1 Z translation displacement, node 4, m
        130     1.34913702011E+001                                                     F               0         Blade 1 X translation displacement, node 5, m
        131    -3.26185226440E+001                                                     F               0         Blade 1 Y translation displacement, node 5, m
        132    -5.50094680786E+001                                                     F               0         Blade 1 Z translation displacement, node 5, m
        133     1.25326023102E+001                                                     F               0         Blade 1 X translation displacement, node 6, m
        134    -3.53805236816E+001                                                     F               0         Blade 1 Y translation displacement, node 6, m
        135    -6.15055694580E+001                                                     F               0         Blade 1 Z translation displacement, node 6, m
        136     1.15738315582E+001                                                     F               0         Blade 1 X translation displacement, node 7, m
        137    -3.81425323486E+001                                                     F               0         Blade 1 Y translation displacement, node 7, m
        138    -6.80016860962E+001                                                     F               0         Blade 1 Z translation displacement, node 7, m
        139     1.06148891449E+001                                                     F               0         Blade 1 X translation displacement, node 8, m
        140    -4.09050331116E+001                                                     F               0         Blade 1 Y translation displacement, node 8, m
        141    -7.44989700317E+001                                                     F               0         Blade 1 Z translation displacement, node 8, m
        142     9.65611743927E+000                                                     F               0         Blade 1 X translation displacement, node 9, m
        143    -4.36670417786E+001                                                     F               0         Blade 1 Y translation displacement, node 9, m
        144    -8.09950866699E+001                                                     F               0         Blade 1 Z translation displacement, node 9, m
        145     8.69735050201E+000                                                     F               0         Blade 1 X translation displacement, node 10, m
        146    -4.64290428162E+001                                                     F               0         Blade 1 Y translation displacement, node 10, m
        147    -8.74911880493E+001                                                     F               0         Blade 1 Z translation displacement, node 10, m
        148     7.73857879639E+000                                                     F               0         Blade 1 X translation displacement, node 11, m
        149    -4.91910514832E+001                                                     F               0         Blade 1 Y translation displacement, node 11, m
        150    -9.39873046875E+001                                                     F               0         Blade 1 Z translation displacement, node 11, m
        151     6.77964019775E+000                                                     F               0         Blade 1 X translation displacement, node 12, m
        152    -5.19535446167E+001                                                     F               0         Blade 1 Y translation displacement, node 12, m
        153    -1.00484565735E+002                                                     F               0         Blade 1 Z translation displacement, node 12, m
        154     5.82086849213E+000                                                     F               0         Blade 1 X translation displacement, node 13, m
        155    -5.47155532837E+001                                                     F               0         Blade 1 Y translation displacement, node 13, m
        156    -1.06980682373E+002                                                     F               0         Blade 1 Z translation displacement, node 13, m
        157     4.86210107803E+000                                                     F               0         Blade 1 X translation displacement, node 14, m
        158    -5.74775505066E+001                                                     F               0         Blade 1 Y translation displacement, node 14, m
        159    -1.13476783752E+002                                                     F               0         Blade 1 Z translation displacement, node 14, m
        160     3.90315580368E+000                                                     F               0         Blade 1 X translation displacement, node 15, m
        161    -6.02400588989E+001                                                     F               0         Blade 1 Y translation displacement, node 15, m
        162    -1.19974075317E+002                                                     F               0         Blade 1 Z translation displacement, node 15, m
        163     2.94438767433E+000                                                     F               0         Blade 1 X translation displacement, node 16, m
        164    -6.30020637512E+001                                                     F               0         Blade 1 Y translation displacement, node 16, m
        165    -1.26470184326E+002                                                     F               0         Blade 1 Z translation displacement, node 16, m
        166     1.98561573029E+000                                                     F               0         Blade 1 X translation displacement, node 17, m
        167    -6.57640762329E+001                                                     F               0         Blade 1 Y translation displacement, node 17, m
        168    -1.32966308594E+002                                                     F               0         Blade 1 Z translation displacement, node 17, m
        169     1.02684736252E+000                                                     F               0         Blade 1 X translation displacement, node 18, m
        170    -6.85260772705E+001                                                     F               0         Blade 1 Y translation displacement, node 18, m
        171    -1.39462417603E+002                                                     F               0         Blade 1 Z translation displacement, node 18, m
        172     6.79078176618E-002                                                     F               0         Blade 1 X translation displacement, node 19, m
        173    -7.12885665894E+001                                                     F               0         Blade 1 Y translation displacement, node 19, m
        174    -1.45959671021E+002                                                     F               0         Blade 1 Z translation displacement, node 19, m
        175    -8.90864133835E-001                                                     F               0         Blade 1 X translation displacement, node 20, m
        176    -7.40505752563E+001                                                     F               0         Blade 1 Y translation displacement, node 20, m
        177    -1.52455780029E+002                                                     F               0         Blade 1 Z translation displacement, node 20, m
        178    -1.84963250160E+000                                                     F               0         Blade 1 X translation displacement, node 21, m
        179    -7.68125839233E+001                                                     F               0         Blade 1 Y translation displacement, node 21, m
        180    -1.58951904297E+002                                                     F               0         Blade 1 Z translation displacement, node 21, m
        181    -2.80857563019E+000                                                     F               0         Blade 1 X translation displacement, node 22, m
        182    -7.95750885010E+001                                                     F               0         Blade 1 Y translation displacement, node 22, m
        183    -1.65449188232E+002                                                     F               0         Blade 1 Z translation displacement, node 22, m