
Linearized model: Predictions were generated on 13-Feb-2024 at 11:29:37 using OpenFAST, compiled as a 64-bit application using single precision at commit v3.5.1
 linked with  NWTC Subroutine Library; ElastoDyn; InflowWind; AeroDyn; ServoDyn; HydroDyn; MAP++ (<1.20.10>, <Oct-20-2023>)

Description from the FAST input file: CCT-9 Campign 4 model. Input files to be run with OpenFAST 3.5.0. GitHub branch from Lu Wang (https://github.com/luwang00/openfast/tree/dev) compiled on March 7, 2023.

Simulation information:
   Simulation time:                  1218.5500 s
   Rotor Speed:                         0.7916 rad/s
   Azimuth:                             6.1156 rad
   Wind Speed:                         16.0000 m/s
   Number of continuous states:        14
   Number of discrete states:           0
   Number of constraint states:         0
   Number of inputs:                 1890
   Number of outputs:                  25
   Jacobians included in this file?    No

Order of continuous states:
   Row/Column Operating Point                                                   Rotating Frame? Derivative Order Description
   ---------- ---------------                                                   --------------- ---------------- -----------
          1     8.64497470856E+000                                                     F               2         Platform horizontal surge translation DOF (internal DOF index = DOF_Sg), m
          2    -6.19431614876E-001                                                     F               2         Platform horizontal sway translation DOF (internal DOF index = DOF_Sw), m
          3    -1.60280078650E-001                                                     F               2         Platform vertical heave translation DOF (internal DOF index = DOF_Hv), m
          4     5.18468059599E-002                                                     F               2         Platform roll tilt rotation DOF (internal DOF index = DOF_R), rad
          5     1.12999029458E-001                                                     F               2         Platform pitch tilt rotation DOF (internal DOF index = DOF_P), rad
          6     5.04310533870E-004                                                     F               2         Platform yaw rotation DOF (internal DOF index = DOF_Y), rad
          7     4.54477643967E+000                                                     F               2         Variable speed generator DOF (internal DOF index = DOF_GeAz), rad
          8    -1.21349301480E-004                                                     F               2         First time derivative of Platform horizontal surge translation DOF (internal DOF index = DOF_Sg), m/s
          9     9.51559341047E-005                                                     F               2         First time derivative of Platform horizontal sway translation DOF (internal DOF index = DOF_Sw), m/s
         10    -7.02776480466E-003                                                     F               2         First time derivative of Platform vertical heave translation DOF (internal DOF index = DOF_Hv), m/s
         11     2.95431909763E-005                                                     F               2         First time derivative of Platform roll tilt rotation DOF (internal DOF index = DOF_R), rad/s
         12    -9.67750747805E-006                                                     F               2         First time derivative of Platform pitch tilt rotation DOF (internal DOF index = DOF_P), rad/s
         13    -1.93367231986E-005                                                     F               2         First time derivative of Platform yaw rotation DOF (internal DOF index = DOF_Y), rad/s
         14     7.91606068611E-001                                                     F               2         First time derivative of Variable speed generator DOF (internal DOF index = DOF_GeAz), rad/s

Order of continuous state derivatives:
   Row/Column Operating Point                                                   Rotating Frame? Derivative Order Description
   ---------- ---------------                                                   --------------- ---------------- -----------
          1    -1.21349301480E-004                                                     F               2         First time derivative of Platform horizontal surge translation DOF (internal DOF index = DOF_Sg), m/s
          2     9.51559341047E-005                                                     F               2         First time derivative of Platform horizontal sway translation DOF (internal DOF index = DOF_Sw), m/s
          3    -7.02776480466E-003                                                     F               2         First time derivative of Platform vertical heave translation DOF (internal DOF index = DOF_Hv), m/s
          4     2.95431909763E-005                                                     F               2         First time derivative of Platform roll tilt rotation DOF (internal DOF index = DOF_R), rad/s
          5    -9.67750747805E-006                                                     F               2         First time derivative of Platform pitch tilt rotation DOF (internal DOF index = DOF_P), rad/s
          6    -1.93367231986E-005                                                     F               2         First time derivative of Platform yaw rotation DOF (internal DOF index = DOF_Y), rad/s
          7     7.91606068611E-001                                                     F               2         First time derivative of Variable speed generator DOF (internal DOF index = DOF_GeAz), rad/s
          8     1.90610153368E-004                                                     F               2         First time derivative of First time derivative of Platform horizontal surge translation DOF (internal DOF index = DOF_Sg), m/s/s
          9    -1.71930616489E-004                                                     F               2         First time derivative of First time derivative of Platform horizontal sway translation DOF (internal DOF index = DOF_Sw), m/s/s
         10     8.76824022271E-004                                                     F               2         First time derivative of First time derivative of Platform vertical heave translation DOF (internal DOF index = DOF_Hv), m/s/s
         11     1.01717414509E-005                                                     F               2         First time derivative of First time derivative of Platform roll tilt rotation DOF (internal DOF index = DOF_R), rad/s/s
         12     1.74640172190E-005                                                     F               2         First time derivative of First time derivative of Platform pitch tilt rotation DOF (internal DOF index = DOF_P), rad/s/s
         13    -7.08015659256E-006                                                     F               2         First time derivative of First time derivative of Platform yaw rotation DOF (internal DOF index = DOF_Y), rad/s/s
         14    -4.95405256515E-005                                                     F               2         First time derivative of First time derivative of Variable speed generator DOF (internal DOF index = DOF_GeAz), rad/s/s

Order of inputs:
     Column   Operating Point                                                   Rotating Frame? Derivative Order Description
   ---------- ---------------                                                   --------------- ---------------- -----------
          1     1.62076553345E+002                                                     F               0         Blade 1 X force, node 1, N
          2     7.48034515381E+001                                                     F               0         Blade 1 Y force, node 1, N
          3    -4.45348205566E+001                                                     F               0         Blade 1 Z force, node 1, N
          4     6.93046447754E+002                                                     F               0         Blade 1 X force, node 2, N
          5     1.21366973877E+002                                                     F               0         Blade 1 Y force, node 2, N
          6    -1.66589233398E+002                                                     F               0         Blade 1 Z force, node 2, N
          7     8.97642395020E+002                                                     F               0         Blade 1 X force, node 3, N
          8    -7.62625350952E+001                                                     F               0         Blade 1 Y force, node 3, N
          9    -1.87724990845E+002                                                     F               0         Blade 1 Z force, node 3, N
         10     1.17581567383E+003                                                     F               0         Blade 1 X force, node 4, N
         11    -2.61710662842E+002                                                     F               0         Blade 1 Y force, node 4, N
         12    -2.26462219238E+002                                                     F               0         Blade 1 Z force, node 4, N
         13     1.45400000000E+003                                                     F               0         Blade 1 X force, node 5, N
         14    -4.47162628174E+002                                                     F               0         Blade 1 Y force, node 5, N
         15    -2.65201446533E+002                                                     F               0         Blade 1 Z force, node 5, N
         16     1.73217626953E+003                                                     F               0         Blade 1 X force, node 6, N
         17    -6.32612731934E+002                                                     F               0         Blade 1 Y force, node 6, N
         18    -3.03939086914E+002                                                     F               0         Blade 1 Z force, node 6, N
         19     2.01033923340E+003                                                     F               0         Blade 1 X force, node 7, N
         20    -8.18057434082E+002                                                     F               0         Blade 1 Y force, node 7, N
         21    -3.42674438477E+002                                                     F               0         Blade 1 Z force, node 7, N
         22     2.28851269531E+003                                                     F               0         Blade 1 X force, node 8, N
         23    -1.00350561523E+003                                                     F               0         Blade 1 Y force, node 8, N
         24    -3.81411682129E+002                                                     F               0         Blade 1 Z force, node 8, N
         25     2.56668627930E+003                                                     F               0         Blade 1 X force, node 9, N
         26    -1.18895385742E+003                                                     F               0         Blade 1 Y force, node 9, N
         27    -4.20148956299E+002                                                     F               0         Blade 1 Z force, node 9, N
         28     2.84485937500E+003                                                     F               0         Blade 1 X force, node 10, N
         29    -1.37440209961E+003                                                     F               0         Blade 1 Y force, node 10, N
         30    -4.58886169434E+002                                                     F               0         Blade 1 Z force, node 10, N
         31     3.12303247070E+003                                                     F               0         Blade 1 X force, node 11, N
         32    -1.55984997559E+003                                                     F               0         Blade 1 Y force, node 11, N
         33    -4.97623443604E+002                                                     F               0         Blade 1 Z force, node 11, N
         34     3.40122998047E+003                                                     F               0         Blade 1 X force, node 12, N
         35    -1.74531066895E+003                                                     F               0         Blade 1 Y force, node 12, N
         36    -5.36364379883E+002                                                     F               0         Blade 1 Z force, node 12, N
         37     3.67940600586E+003                                                     F               0         Blade 1 X force, node 13, N
         38    -1.93076074219E+003                                                     F               0         Blade 1 Y force, node 13, N
         39    -5.75102050781E+002                                                     F               0         Blade 1 Z force, node 13, N
         40     3.95755639648E+003                                                     F               0         Blade 1 X force, node 14, N
         41    -2.11619702148E+003                                                     F               0         Blade 1 Y force, node 14, N
         42    -6.13835693359E+002                                                     F               0         Blade 1 Z force, node 14, N
         43     4.23575830078E+003                                                     F               0         Blade 1 X force, node 15, N
         44    -2.30166040039E+003                                                     F               0         Blade 1 Y force, node 15, N
         45    -6.52577270508E+002                                                     F               0         Blade 1 Z force, node 15, N
         46     4.51390185547E+003                                                     F               0         Blade 1 X force, node 16, N
         47    -2.48709252930E+003                                                     F               0         Blade 1 Y force, node 16, N
         48    -6.91309997559E+002                                                     F               0         Blade 1 Z force, node 16, N
         49     5.55057275391E+003                                                     F               0         Blade 1 X force, node 17, N
         50    -3.08792407227E+003                                                     F               0         Blade 1 Y force, node 17, N
         51    -8.46516906738E+002                                                     F               0         Blade 1 Z force, node 17, N
         52     4.19101464844E+003                                                     F               0         Blade 1 X force, node 18, N
         53    -2.28301538086E+003                                                     F               0         Blade 1 Y force, node 18, N
         54    -6.45003112793E+002                                                     F               0         Blade 1 Z force, node 18, N
         55     5.07529833984E+003                                                     F               0         Blade 1 X force, node 19, N
         56    -2.68234399414E+003                                                     F               0         Blade 1 Y force, node 19, N
         57    -7.90990966797E+002                                                     F               0         Blade 1 Z force, node 19, N
         58     4.27390136719E+003                                                     F               0         Blade 1 X force, node 20, N
         59    -2.19307250977E+003                                                     F               0         Blade 1 Y force, node 20, N
         60    -6.73987426758E+002                                                     F               0         Blade 1 Z force, node 20, N
         61     6.22205371094E+003                                                     F               0         Blade 1 X force, node 21, N
         62    -3.08469702148E+003                                                     F               0         Blade 1 Y force, node 21, N
         63    -9.94184936523E+002                                                     F               0         Blade 1 Z force, node 21, N
         64     5.41332763672E+003                                                     F               0         Blade 1 X force, node 22, N
         65    -2.59369213867E+003                                                     F               0         Blade 1 Y force, node 22, N
         66    -8.75782165527E+002                                                     F               0         Blade 1 Z force, node 22, N
         67     5.48917626953E+003                                                     F               0         Blade 1 X force, node 23, N
         68    -2.54832861328E+003                                                     F               0         Blade 1 Y force, node 23, N
         69    -8.97867553711E+002                                                     F               0         Blade 1 Z force, node 23, N
         70     5.66175683594E+003                                                     F               0         Blade 1 X force, node 24, N
         71    -2.54740600586E+003                                                     F               0         Blade 1 Y force, node 24, N
         72    -9.35831787109E+002                                                     F               0         Blade 1 Z force, node 24, N
         73     5.73272949219E+003                                                     F               0         Blade 1 X force, node 25, N
         74    -2.50208642578E+003                                                     F               0         Blade 1 Y force, node 25, N
         75    -9.56842529297E+002                                                     F               0         Blade 1 Z force, node 25, N
         76     5.83530371094E+003                                                     F               0         Blade 1 X force, node 26, N
         77    -2.47156713867E+003                                                     F               0         Blade 1 Y force, node 26, N
         78    -9.83006652832E+002                                                     F               0         Blade 1 Z force, node 26, N
         79     6.90916406250E+003                                                     F               0         Blade 1 X force, node 27, N
         80    -2.83523193359E+003                                                     F               0         Blade 1 Y force, node 27, N
         81    -1.17485949707E+003                                                     F               0         Blade 1 Z force, node 27, N
         82     5.05257031250E+003                                                     F               0         Blade 1 X force, node 28, N
         83    -2.01060681152E+003                                                     F               0         Blade 1 Y force, node 28, N
         84    -8.66695922852E+002                                                     F               0         Blade 1 Z force, node 28, N
         85     6.10531054688E+003                                                     F               0         Blade 1 X force, node 29, N
         86    -2.36698583984E+003                                                     F               0         Blade 1 Y force, node 29, N
         87    -1.05479138184E+003                                                     F               0         Blade 1 Z force, node 29, N
         88     5.13314794922E+003                                                     F               0         Blade 1 X force, node 30, N
         89    -1.93895141602E+003                                                     F               0         Blade 1 Y force, node 30, N
         90    -8.92976867676E+002                                                     F               0         Blade 1 Z force, node 30, N
         91     7.31205273438E+003                                                     F               0         Blade 1 X force, node 31, N
         92    -2.67980957031E+003                                                     F               0         Blade 1 Y force, node 31, N
         93    -1.28189746094E+003                                                     F               0         Blade 1 Z force, node 31, N
         94     6.32673095703E+003                                                     F               0         Blade 1 X force, node 32, N
         95    -2.25110180664E+003                                                     F               0         Blade 1 Y force, node 32, N
         96    -1.11727734375E+003                                                     F               0         Blade 1 Z force, node 32, N
         97     6.39192382812E+003                                                     F               0         Blade 1 X force, node 33, N
         98    -2.21177197266E+003                                                     F               0         Blade 1 Y force, node 33, N
         99    -1.13630102539E+003                                                     F               0         Blade 1 Z force, node 33, N
        100     6.45434033203E+003                                                     F               0         Blade 1 X force, node 34, N
        101    -2.17242333984E+003                                                     F               0         Blade 1 Y force, node 34, N
        102    -1.15471765137E+003                                                     F               0         Blade 1 Z force, node 34, N
        103     6.49908447266E+003                                                     F               0         Blade 1 X force, node 35, N
        104    -2.13073510742E+003                                                     F               0         Blade 1 Y force, node 35, N
        105    -1.16953942871E+003                                                     F               0         Blade 1 Z force, node 35, N
        106     6.53768310547E+003                                                     F               0         Blade 1 X force, node 36, N
        107    -2.08789355469E+003                                                     F               0         Blade 1 Y force, node 36, N
        108    -1.18315173340E+003                                                     F               0         Blade 1 Z force, node 36, N
        109     7.68673144531E+003                                                     F               0         Blade 1 X force, node 37, N
        110    -2.38660131836E+003                                                     F               0         Blade 1 Y force, node 37, N
        111    -1.39929870605E+003                                                     F               0         Blade 1 Z force, node 37, N
        112     5.50184082031E+003                                                     F               0         Blade 1 X force, node 38, N
        113    -1.66302954102E+003                                                     F               0         Blade 1 Y force, node 38, N
        114    -1.00698901367E+003                                                     F               0         Blade 1 Z force, node 38, N
        115     6.64414501953E+003                                                     F               0         Blade 1 X force, node 39, N
        116    -1.96373864746E+003                                                     F               0         Blade 1 Y force, node 39, N
        117    -1.22141650391E+003                                                     F               0         Blade 1 Z force, node 39, N
        118     5.58386328125E+003                                                     F               0         Blade 1 X force, node 40, N
        119    -1.61308166504E+003                                                     F               0         Blade 1 Y force, node 40, N
        120    -1.03097924805E+003                                                     F               0         Blade 1 Z force, node 40, N
        121     7.79078369141E+003                                                     F               0         Blade 1 X force, node 41, N
        122    -2.19160083008E+003                                                     F               0         Blade 1 Y force, node 41, N
        123    -1.44554479980E+003                                                     F               0         Blade 1 Z force, node 41, N
        124     6.70519726562E+003                                                     F               0         Blade 1 X force, node 42, N
        125    -1.83753247070E+003                                                     F               0         Blade 1 Y force, node 42, N
        126    -1.24996740723E+003                                                     F               0         Blade 1 Z force, node 42, N
        127     6.71050585938E+003                                                     F               0         Blade 1 X force, node 43, N
        128    -1.79342480469E+003                                                     F               0         Blade 1 Y force, node 43, N
        129    -1.25643017578E+003                                                     F               0         Blade 1 Z force, node 43, N
        130     6.75047656250E+003                                                     F               0         Blade 1 X force, node 44, N
        131    -1.75895544434E+003                                                     F               0         Blade 1 Y force, node 44, N
        132    -1.26933752441E+003                                                     F               0         Blade 1 Z force, node 44, N
        133     6.68157812500E+003                                                     F               0         Blade 1 X force, node 45, N
        134    -1.69916943359E+003                                                     F               0         Blade 1 Y force, node 45, N
        135    -1.26140722656E+003                                                     F               0         Blade 1 Z force, node 45, N
        136     6.71802441406E+003                                                     F               0         Blade 1 X force, node 46, N
        137    -1.66733056641E+003                                                     F               0         Blade 1 Y force, node 46, N
        138    -1.27322583008E+003                                                     F               0         Blade 1 Z force, node 46, N
        139     7.88753173828E+003                                                     F               0         Blade 1 X force, node 47, N
        140    -1.90617517090E+003                                                     F               0         Blade 1 Y force, node 47, N
        141    -1.50105102539E+003                                                     F               0         Blade 1 Z force, node 47, N
        142     5.54198583984E+003                                                     F               0         Blade 1 X force, node 48, N
        143    -1.30547583008E+003                                                     F               0         Blade 1 Y force, node 48, N
        144    -1.05874426270E+003                                                     F               0         Blade 1 Z force, node 48, N
        145     6.69817187500E+003                                                     F               0         Blade 1 X force, node 49, N
        146    -1.54416589355E+003                                                     F               0         Blade 1 Y force, node 49, N
        147    -1.28366613770E+003                                                     F               0         Blade 1 Z force, node 49, N
        148     5.63338476562E+003                                                     F               0         Blade 1 X force, node 50, N
        149    -1.26993273926E+003                                                     F               0         Blade 1 Y force, node 50, N
        150    -1.08306066895E+003                                                     F               0         Blade 1 Z force, node 50, N
        151     7.72143896484E+003                                                     F               0         Blade 1 X force, node 51, N
        152    -1.69568652344E+003                                                     F               0         Blade 1 Y force, node 51, N
        153    -1.48990515137E+003                                                     F               0         Blade 1 Z force, node 51, N
        154     6.64962548828E+003                                                     F               0         Blade 1 X force, node 52, N
        155    -1.42309313965E+003                                                     F               0         Blade 1 Y force, node 52, N
        156    -1.28756164551E+003                                                     F               0         Blade 1 Z force, node 52, N
        157     6.62910693359E+003                                                     F               0         Blade 1 X force, node 53, N
        158    -1.38368334961E+003                                                     F               0         Blade 1 Y force, node 53, N