
Linearized model: Predictions were generated on 12-Jan-2024 at 09:28:28 using OpenFAST, compiled as a 64-bit application using single precision at commit v3.5.1
 linked with  NWTC Subroutine Library; ElastoDyn; InflowWind; AeroDyn; ServoDyn; HydroDyn; MAP++ (<1.20.10>, <Oct-20-2023>)

Description from the FAST input file: CCT-9 Campign 4 model. Input files to be run with OpenFAST 3.5.0. GitHub branch from Lu Wang (https://github.com/luwang00/openfast/tree/dev) compiled on March 7, 2023.

Simulation information:
   Simulation time:                   506.1750 s
   Rotor Speed:                         0.8777 rad/s
   Azimuth:                             2.9895 rad
   Wind Speed:                         10.0000 m/s
   Number of continuous states:         0
   Number of discrete states:           0
   Number of constraint states:         0
   Number of inputs:                  303
   Number of outputs:                   1
   Jacobians included in this file?    No

Order of inputs:
     Column   Operating Point                     Rotating Frame? Derivative Order Description
   ---------- ---------------                     --------------- ---------------- -----------
          1   -1.080E+01                                 F               0         X-component position of node 1 (hub), m
          2    0.000E+00                                 F               0         Y-component position of node 1 (hub), m
          3    1.497E+02                                 F               0         Z-component position of node 1 (hub), m
          4    1.535E+01                                 F               0         X-component position of node 2 (blade 1, node 1), m
          5   -8.283E+00                                 F               0         Y-component position of node 2 (blade 1, node 1), m
          6    1.443E+02                                 F               0         Z-component position of node 2 (blade 1, node 1), m
          7    1.505E+01                                 F               0         X-component position of node 3 (blade 1, node 2), m
          8   -8.422E+00                                 F               0         Y-component position of node 3 (blade 1, node 2), m
          9    1.430E+02                                 F               0         Z-component position of node 3 (blade 1, node 2), m
         10    1.094E+01                                 F               0         X-component position of node 4 (blade 1, node 3), m
         11   -1.031E+01                                 F               0         Y-component position of node 4 (blade 1, node 3), m
         12    1.254E+02                                 F               0         Z-component position of node 4 (blade 1, node 3), m
         13    1.006E+01                                 F               0         X-component position of node 5 (blade 1, node 4), m
         14   -1.071E+01                                 F               0         Y-component position of node 5 (blade 1, node 4), m
         15    1.216E+02                                 F               0         Z-component position of node 5 (blade 1, node 4), m
         16    9.185E+00                                 F               0         X-component position of node 6 (blade 1, node 5), m
         17   -1.111E+01                                 F               0         Y-component position of node 6 (blade 1, node 5), m
         18    1.179E+02                                 F               0         Z-component position of node 6 (blade 1, node 5), m
         19    8.309E+00                                 F               0         X-component position of node 7 (blade 1, node 6), m
         20   -1.152E+01                                 F               0         Y-component position of node 7 (blade 1, node 6), m
         21    1.141E+02                                 F               0         Z-component position of node 7 (blade 1, node 6), m
         22    7.433E+00                                 F               0         X-component position of node 8 (blade 1, node 7), m
         23   -1.192E+01                                 F               0         Y-component position of node 8 (blade 1, node 7), m
         24    1.104E+02                                 F               0         Z-component position of node 8 (blade 1, node 7), m
         25    6.557E+00                                 F               0         X-component position of node 9 (blade 1, node 8), m
         26   -1.232E+01                                 F               0         Y-component position of node 9 (blade 1, node 8), m
         27    1.066E+02                                 F               0         Z-component position of node 9 (blade 1, node 8), m
         28    5.681E+00                                 F               0         X-component position of node 10 (blade 1, node 9), m
         29   -1.272E+01                                 F               0         Y-component position of node 10 (blade 1, node 9), m
         30    1.029E+02                                 F               0         Z-component position of node 10 (blade 1, node 9), m
         31    4.805E+00                                 F               0         X-component position of node 11 (blade 1, node 10), m
         32   -1.313E+01                                 F               0         Y-component position of node 11 (blade 1, node 10), m
         33    9.916E+01                                 F               0         Z-component position of node 11 (blade 1, node 10), m
         34    3.929E+00                                 F               0         X-component position of node 12 (blade 1, node 11), m
         35   -1.353E+01                                 F               0         Y-component position of node 12 (blade 1, node 11), m
         36    9.541E+01                                 F               0         Z-component position of node 12 (blade 1, node 11), m
         37    3.053E+00                                 F               0         X-component position of node 13 (blade 1, node 12), m
         38   -1.393E+01                                 F               0         Y-component position of node 13 (blade 1, node 12), m
         39    9.167E+01                                 F               0         Z-component position of node 13 (blade 1, node 12), m
         40    2.177E+00                                 F               0         X-component position of node 14 (blade 1, node 13), m
         41   -1.433E+01                                 F               0         Y-component position of node 14 (blade 1, node 13), m
         42    8.792E+01                                 F               0         Z-component position of node 14 (blade 1, node 13), m
         43    1.301E+00                                 F               0         X-component position of node 15 (blade 1, node 14), m
         44   -1.474E+01                                 F               0         Y-component position of node 15 (blade 1, node 14), m
         45    8.418E+01                                 F               0         Z-component position of node 15 (blade 1, node 14), m
         46    4.247E-01                                 F               0         X-component position of node 16 (blade 1, node 15), m
         47   -1.514E+01                                 F               0         Y-component position of node 16 (blade 1, node 15), m
         48    8.043E+01                                 F               0         Z-component position of node 16 (blade 1, node 15), m
         49   -4.513E-01                                 F               0         X-component position of node 17 (blade 1, node 16), m
         50   -1.554E+01                                 F               0         Y-component position of node 17 (blade 1, node 16), m
         51    7.668E+01                                 F               0         Z-component position of node 17 (blade 1, node 16), m
         52   -1.327E+00                                 F               0         X-component position of node 18 (blade 1, node 17), m
         53   -1.594E+01                                 F               0         Y-component position of node 18 (blade 1, node 17), m
         54    7.294E+01                                 F               0         Z-component position of node 18 (blade 1, node 17), m
         55   -2.203E+00                                 F               0         X-component position of node 19 (blade 1, node 18), m
         56   -1.635E+01                                 F               0         Y-component position of node 19 (blade 1, node 18), m
         57    6.919E+01                                 F               0         Z-component position of node 19 (blade 1, node 18), m
         58   -3.079E+00                                 F               0         X-component position of node 20 (blade 1, node 19), m
         59   -1.675E+01                                 F               0         Y-component position of node 20 (blade 1, node 19), m
         60    6.545E+01                                 F               0         Z-component position of node 20 (blade 1, node 19), m
         61   -3.955E+00                                 F               0         X-component position of node 21 (blade 1, node 20), m
         62   -1.715E+01                                 F               0         Y-component position of node 21 (blade 1, node 20), m
         63    6.170E+01                                 F               0         Z-component position of node 21 (blade 1, node 20), m
         64   -4.831E+00                                 F               0         X-component position of node 22 (blade 1, node 21), m
         65   -1.755E+01                                 F               0         Y-component position of node 22 (blade 1, node 21), m
         66    5.796E+01                                 F               0         Z-component position of node 22 (blade 1, node 21), m
         67   -5.707E+00                                 F               0         X-component position of node 23 (blade 1, node 22), m
         68   -1.795E+01                                 F               0         Y-component position of node 23 (blade 1, node 22), m
         69    5.421E+01                                 F               0         Z-component position of node 23 (blade 1, node 22), m
         70   -6.583E+00                                 F               0         X-component position of node 24 (blade 1, node 23), m
         71   -1.836E+01                                 F               0         Y-component position of node 24 (blade 1, node 23), m
         72    5.046E+01                                 F               0         Z-component position of node 24 (blade 1, node 23), m
         73   -7.459E+00                                 F               0         X-component position of node 25 (blade 1, node 24), m
         74   -1.876E+01                                 F               0         Y-component position of node 25 (blade 1, node 24), m
         75    4.672E+01                                 F               0         Z-component position of node 25 (blade 1, node 24), m
         76   -8.335E+00                                 F               0         X-component position of node 26 (blade 1, node 25), m
         77   -1.916E+01                                 F               0         Y-component position of node 26 (blade 1, node 25), m
         78    4.297E+01                                 F               0         Z-component position of node 26 (blade 1, node 25), m
         79   -9.211E+00                                 F               0         X-component position of node 27 (blade 1, node 26), m
         80   -1.956E+01                                 F               0         Y-component position of node 27 (blade 1, node 26), m
         81    3.923E+01                                 F               0         Z-component position of node 27 (blade 1, node 26), m
         82   -1.009E+01                                 F               0         X-component position of node 28 (blade 1, node 27), m
         83   -1.997E+01                                 F               0         Y-component position of node 28 (blade 1, node 27), m
         84    3.548E+01                                 F               0         Z-component position of node 28 (blade 1, node 27), m
         85   -1.083E+01                                 F               0         X-component position of node 29 (blade 1, node 28), m
         86   -2.031E+01                                 F               0         Y-component position of node 29 (blade 1, node 28), m
         87    3.231E+01                                 F               0         Z-component position of node 29 (blade 1, node 28), m
         88    1.705E+01                                 F               0         X-component position of node 30 (blade 2, node 1), m
         89   -2.647E+00                                 F               0         Y-component position of node 30 (blade 2, node 1), m
         90    1.518E+02                                 F               0         Z-component position of node 30 (blade 2, node 1), m
         91    1.715E+01                                 F               0         X-component position of node 31 (blade 2, node 2), m
         92   -1.428E+00                                 F               0         Y-component position of node 31 (blade 2, node 2), m
         93    1.524E+02                                 F               0         Z-component position of node 31 (blade 2, node 2), m
         94    1.860E+01                                 F               0         X-component position of node 32 (blade 2, node 3), m
         95    1.515E+01                                 F               0         Y-component position of node 32 (blade 2, node 3), m
         96    1.596E+02                                 F               0         Z-component position of node 32 (blade 2, node 3), m
         97    1.890E+01                                 F               0         X-component position of node 33 (blade 2, node 4), m
         98    1.868E+01                                 F               0         Y-component position of node 33 (blade 2, node 4), m
         99    1.612E+02                                 F               0         Z-component position of node 33 (blade 2, node 4), m
        100    1.921E+01                                 F               0         X-component position of node 34 (blade 2, node 5), m
        101    2.221E+01                                 F               0         Y-component position of node 34 (blade 2, node 5), m
        102    1.627E+02                                 F               0         Z-component position of node 34 (blade 2, node 5), m
        103    1.952E+01                                 F               0         X-component position of node 35 (blade 2, node 6), m
        104    2.575E+01                                 F               0         Y-component position of node 35 (blade 2, node 6), m
        105    1.643E+02                                 F               0         Z-component position of node 35 (blade 2, node 6), m
        106    1.983E+01                                 F               0         X-component position of node 36 (blade 2, node 7), m
        107    2.928E+01                                 F               0         Y-component position of node 36 (blade 2, node 7), m
        108    1.658E+02                                 F               0         Z-component position of node 36 (blade 2, node 7), m
        109    2.013E+01                                 F               0         X-component position of node 37 (blade 2, node 8), m
        110    3.281E+01                                 F               0         Y-component position of node 37 (blade 2, node 8), m
        111    1.673E+02                                 F               0         Z-component position of node 37 (blade 2, node 8), m
        112    2.044E+01                                 F               0         X-component position of node 38 (blade 2, node 9), m
        113    3.634E+01                                 F               0         Y-component position of node 38 (blade 2, node 9), m
        114    1.689E+02                                 F               0         Z-component position of node 38 (blade 2, node 9), m
        115    2.075E+01                                 F               0         X-component position of node 39 (blade 2, node 10), m
        116    3.987E+01                                 F               0         Y-component position of node 39 (blade 2, node 10), m
        117    1.704E+02                                 F               0         Z-component position of node 39 (blade 2, node 10), m
        118    2.106E+01                                 F               0         X-component position of node 40 (blade 2, node 11), m
        119    4.341E+01                                 F               0         Y-component position of node 40 (blade 2, node 11), m
        120    1.720E+02                                 F               0         Z-component position of node 40 (blade 2, node 11), m
        121    2.137E+01                                 F               0         X-component position of node 41 (blade 2, node 12), m
        122    4.694E+01                                 F               0         Y-component position of node 41 (blade 2, node 12), m
        123    1.735E+02                                 F               0         Z-component position of node 41 (blade 2, node 12), m
        124    2.167E+01                                 F               0         X-component position of node 42 (blade 2, node 13), m
        125    5.047E+01                                 F               0         Y-component position of node 42 (blade 2, node 13), m
        126    1.751E+02                                 F               0         Z-component position of node 42 (blade 2, node 13), m
        127    2.198E+01                                 F               0         X-component position of node 43 (blade 2, node 14), m
        128    5.400E+01                                 F               0         Y-component position of node 43 (blade 2, node 14), m
        129    1.766E+02                                 F               0         Z-component position of node 43 (blade 2, node 14), m
        130    2.229E+01                                 F               0         X-component position of node 44 (blade 2, node 15), m
        131    5.754E+01                                 F               0         Y-component position of node 44 (blade 2, node 15), m
        132    1.782E+02                                 F               0         Z-component position of node 44 (blade 2, node 15), m
        133    2.260E+01                                 F               0         X-component position of node 45 (blade 2, node 16), m
        134    6.107E+01                                 F               0         Y-component position of node 45 (blade 2, node 16), m
        135    1.797E+02                                 F               0         Z-component position of node 45 (blade 2, node 16), m
        136    2.290E+01                                 F               0         X-component position of node 46 (blade 2, node 17), m
        137    6.460E+01                                 F               0         Y-component position of node 46 (blade 2, node 17), m
        138    1.813E+02                                 F               0         Z-component position of node 46 (blade 2, node 17), m
        139    2.321E+01                                 F               0         X-component position of node 47 (blade 2, node 18), m
        140    6.813E+01                                 F               0         Y-component position of node 47 (blade 2, node 18), m
        141    1.828E+02                                 F               0         Z-component position of node 47 (blade 2, node 18), m
        142    2.352E+01                                 F               0         X-component position of node 48 (blade 2, node 19), m
        143    7.166E+01                                 F               0         Y-component position of node 48 (blade 2, node 19), m
        144    1.843E+02                                 F               0         Z-component position of node 48 (blade 2, node 19), m
        145    2.383E+01                                 F               0         X-component position of node 49 (blade 2, node 20), m
        146    7.520E+01                                 F               0         Y-component position of node 49 (blade 2, node 20), m
        147    1.859E+02                                 F               0         Z-component position of node 49 (blade 2, node 20), m
        148    2.413E+01                                 F               0         X-component position of node 50 (blade 2, node 21), m
        149    7.873E+01                                 F               0         Y-component position of node 50 (blade 2, node 21), m
        150    1.874E+02                                 F               0         Z-component position of node 50 (blade 2, node 21), m
        151    2.444E+01                                 F               0         X-component position of node 51 (blade 2, node 22), m
        152    8.226E+01                                 F               0         Y-component position of node 51 (blade 2, node 22), m
        153    1.890E+02                                 F               0         Z-component position of node 51 (blade 2, node 22), m
        154    2.475E+01                                 F               0         X-component position of node 52 (blade 2, node 23), m
        155    8.579E+01                                 F               0         Y-component position of node 52 (blade 2, node 23), m
        156    1.905E+02                                 F               0         Z-component position of node 52 (blade 2, node 23), m
        157    2.506E+01                                 F               0         X-component position of node 53 (blade 2, node 24), m
        158    8.932E+01                                 F               0         Y-component position of node 53 (blade 2, node 24), m
        159    1.921E+02                                 F               0         Z-component position of node 53 (blade 2, node 24), m
        160    2.537E+01                                 F               0         X-component position of node 54 (blade 2, node 25), m
        161    9.286E+01                                 F               0         Y-component position of node 54 (blade 2, node 25), m
        162    1.936E+02                                 F               0         Z-component position of node 54 (blade 2, node 25), m
        163    2.567E+01                                 F               0         X-component position of node 55 (blade 2, node 26), m
        164    9.639E+01                                 F               0         Y-component position of node 55 (blade 2, node 26), m
        165    1.952E+02                                 F               0         Z-component position of node 55 (blade 2, node 26), m
        166    2.598E+01                                 F               0         X-component position of node 56 (blade 2, node 27), m
        167    9.992E+01                                 F               0         Y-component position of node 56 (blade 2, node 27), m
        168    1.967E+02                                 F               0         Z-component position of node 56 (blade 2, node 27), m
        169    2.624E+01                                 F               0         X-component position of node 57 (blade 2, node 28), m
        170    1.029E+02                                 F               0         Y-component position of node 57 (blade 2, node 28), m
        171    1.980E+02                                 F               0         Z-component position of node 57 (blade 2, node 28), m
        172    1.742E+01                                 F               0         X-component position of node 58 (blade 3, node 1), m
        173   -1.219E+01                                 F               0         Y-component position of node 58 (blade 3, node 1), m
        174    1.528E+02                                 F               0         Z-component position of node 58 (blade 3, node 1), m
        175    1.762E+01                                 F               0         X-component position of node 59 (blade 3, node 2), m
        176   -1.327E+01                                 F               0         Y-component position of node 59 (blade 3, node 2), m
        177    1.535E+02                                 F               0         Z-component position of node 59 (blade 3, node 2), m
        178    2.028E+01                                 F               0         X-component position of node 60 (blade 3, node 3), m
        179   -2.796E+01                                 F               0         Y-component position of node 60 (blade 3, node 3), m
        180    1.639E+02                                 F               0         Z-component position of node 60 (blade 3, node 3), m
        181    2.085E+01                                 F               0         X-component position of node 61 (blade 3, node 4), m
        182   -3.109E+01                                 F               0         Y-component position of node 61 (blade 3, node 4), m
        183    1.661E+02                                 F               0         Z-component position of node 61 (blade 3, node 4), m
        184    2.142E+01                                 F               0         X-component position of node 62 (blade 3, node 5), m
        185   -3.422E+01                                 F               0         Y-component position of node 62 (blade 3, node 5), m
        186    1.683E+02                                 F               0         Z-component position of node 62 (blade 3, node 5), m
        187    2.199E+01                                 F               0         X-component position of node 63 (blade 3, node 6), m
        188   -3.735E+01                                 F               0         Y-component position of node 63 (blade 3, node 6), m
        189    1.705E+02                                 F               0         Z-component position of node 63 (blade 3, node 6), m
        190    2.256E+01                                 F               0         X-component position of node 64 (blade 3, node 7), m
        191   -4.048E+01                                 F               0         Y-component position of node 64 (blade 3, node 7), m
        192    1.727E+02                                 F               0         Z-component position of node 64 (blade 3, node 7), m
        193    2.312E+01                                 F               0         X-component position of node 65 (blade 3, node 8), m
        194   -4.361E+01                                 F               0         Y-component position of node 65 (blade 3, node 8), m
        195    1.749E+02                                 F               0         Z-component position of node 65 (blade 3, node 8), m
        196    2.369E+01                                 F               0         X-component position of node 66 (blade 3, node 9), m
        197   -4.674E+01                                 F               0         Y-component position of node 66 (blade 3, node 9), m
        198    1.771E+02                                 F               0         Z-component position of node 66 (blade 3, node 9), m
        199    2.426E+01                                 F               0         X-component position of node 67 (blade 3, node 10), m
        200   -4.987E+01                                 F               0         Y-component position of node 67 (blade 3, node 10), m
        201    1.793E+02                                 F               0         Z-component position of node 67 (blade 3, node 10), m
        202    2.483E+01                                 F               0         X-component position of node 68 (blade 3, node 11), m
        203   -5.300E+01                                 F               0         Y-component position of node 68 (blade 3, node 11), m
        204    1.815E+02                                 F               0         Z-component position of node 68 (blade 3, node 11), m
        205    2.540E+01                                 F               0         X-component position of node 69 (blade 3, node 12), m
        206   -5.613E+01                                 F               0         Y-component position of node 69 (blade 3, node 12), m
        207    1.837E+02                                 F               0         Z-component position of node 69 (blade 3, node 12), m
        208    2.597E+01                                 F               0         X-component position of node 70 (blade 3, node 13), m
        209   -5.926E+01                                 F               0         Y-component position of node 70 (blade 3, node 13), m
        210    1.859E+02                                 F               0         Z-component position of node 70 (blade 3, node 13), m
        211    2.653E+01                                 F               0         X-component position of node 71 (blade 3, node 14), m