
Linearized model: Predictions were generated on 13-Feb-2024 at 12:12:09 using OpenFAST, compiled as a 64-bit application using single precision at commit v3.5.1
 linked with  NWTC Subroutine Library; ElastoDyn; InflowWind; AeroDyn; ServoDyn; HydroDyn; MAP++ (<1.20.10>, <Oct-20-2023>)

Description from the FAST input file: CCT-9 Campign 4 model. Input files to be run with OpenFAST 3.5.0. GitHub branch from Lu Wang (https://github.com/luwang00/openfast/tree/dev) compiled on March 7, 2023.

Simulation information:
   Simulation time:                   771.5500 s
   Rotor Speed:                         0.7921 rad/s
   Azimuth:                             0.8826 rad
   Wind Speed:                         24.0000 m/s
   Number of continuous states:         0
   Number of discrete states:           0
   Number of constraint states:         0
   Number of inputs:                   37
   Number of outputs:                   7
   Jacobians included in this file?    No

Order of inputs:
     Column   Operating Point                                                   Rotating Frame? Derivative Order Description
   ---------- ---------------                                                   --------------- ---------------- -----------
          1     6.82464456558E+000                                                     F               0         WAMIT X translation displacement, node 1, m
          2    -8.28681409359E-001                                                     F               0         WAMIT Y translation displacement, node 1, m
          3    -1.05677604675E-001                                                     F               0         WAMIT Z translation displacement, node 1, m
          4     9.95465278625E-001,  -6.68724672869E-003,  -9.48900133371E-002         F               0         WAMIT X orientation angle, node 1, rad
          5     1.18251116946E-002,   9.98487770557E-001,   5.36869317293E-002         F               0         WAMIT Y orientation angle, node 1, rad
          6     9.43875014782E-002,  -5.45655637980E-002,   9.94039058685E-001         F               0         WAMIT Z orientation angle, node 1, rad
          7     2.86146253347E-003                                                     F               0         WAMIT X translation velocity, node 1, m/s
          8    -3.62475024303E-004                                                     F               0         WAMIT Y translation velocity, node 1, m/s
          9     1.16103561595E-003                                                     F               0         WAMIT Z translation velocity, node 1, m/s
         10     5.06436517753E-005                                                     F               0         WAMIT X rotation velocity, node 1, rad/s
         11     2.43316535489E-004                                                     F               0         WAMIT Y rotation velocity, node 1, rad/s
         12     1.04094342532E-005                                                     F               0         WAMIT Z rotation velocity, node 1, rad/s
         13     1.25634495635E-003                                                     F               0         WAMIT X translation acceleration, node 1, m/s^2
         14     4.45165159181E-003                                                     F               0         WAMIT Y translation acceleration, node 1, m/s^2
         15    -1.27464777324E-003                                                     F               0         WAMIT Z translation acceleration, node 1, m/s^2
         16    -2.59203981841E-004                                                     F               0         WAMIT X rotation acceleration, node 1, rad/s^2
         17     4.50376210210E-005                                                     F               0         WAMIT Y rotation acceleration, node 1, rad/s^2
         18     8.85743611434E-006                                                     F               0         WAMIT Z rotation acceleration, node 1, rad/s^2
         19     6.82464456558E+000                                                     F               0         Platform-RefPt X translation displacement, node 1, m
         20    -8.28681409359E-001                                                     F               0         Platform-RefPt Y translation displacement, node 1, m
         21    -1.05677604675E-001                                                     F               0         Platform-RefPt Z translation displacement, node 1, m
         22     9.95465278625E-001,  -6.68724672869E-003,  -9.48900133371E-002         F               0         Platform-RefPt X orientation angle, node 1, rad
         23     1.18251116946E-002,   9.98487770557E-001,   5.36869317293E-002         F               0         Platform-RefPt Y orientation angle, node 1, rad
         24     9.43875014782E-002,  -5.45655637980E-002,   9.94039058685E-001         F               0         Platform-RefPt Z orientation angle, node 1, rad
         25     2.86146253347E-003                                                     F               0         Platform-RefPt X translation velocity, node 1, m/s
         26    -3.62475024303E-004                                                     F               0         Platform-RefPt Y translation velocity, node 1, m/s
         27     1.16103561595E-003                                                     F               0         Platform-RefPt Z translation velocity, node 1, m/s
         28     5.06436517753E-005                                                     F               0         Platform-RefPt X rotation velocity, node 1, rad/s
         29     2.43316535489E-004                                                     F               0         Platform-RefPt Y rotation velocity, node 1, rad/s
         30     1.04094342532E-005                                                     F               0         Platform-RefPt Z rotation velocity, node 1, rad/s
         31     1.25634495635E-003                                                     F               0         Platform-RefPt X translation acceleration, node 1, m/s^2
         32     4.45165159181E-003                                                     F               0         Platform-RefPt Y translation acceleration, node 1, m/s^2
         33    -1.27464777324E-003                                                     F               0         Platform-RefPt Z translation acceleration, node 1, m/s^2
         34    -2.59203981841E-004                                                     F               0         Platform-RefPt X rotation acceleration, node 1, rad/s^2
         35     4.50376210210E-005                                                     F               0         Platform-RefPt Y rotation acceleration, node 1, rad/s^2
         36     8.85743611434E-006                                                     F               0         Platform-RefPt Z rotation acceleration, node 1, rad/s^2
         37     0.00000000000E+000                                                     F               0         Extended input: wave elevation at platform ref point, m

Order of outputs:
        Row   Operating Point                                                   Rotating Frame? Derivative Order Description
   ---------- ---------------                                                   --------------- ---------------- -----------
          1     0.00000000000E+000                                                     F               0         Wave1Elev, (m)
          2    -5.46429179688E+004                                                     F               0         HydroFxi, (N)
          3    -1.62313027344E+004                                                     F               0         HydroFyi, (N)
          4     2.03830384000E+008                                                     F               0         HydroFzi, (N)
          5    -1.13731232000E+008                                                     F               0         HydroMxi, (N-m)
          6    -2.03634192000E+008                                                     F               0         HydroMyi, (N-m)
          7    -1.73541437500E+005                                                     F               0         HydroMzi, (N-m)


Linearized state matrices:

D: 7 x 37
     0.00000000000E+000   0.00000000000E+000   0.00000000000E+000   0.00000000000E+000   0.00000000000E+000   0.00000000000E+000   0.00000000000E+000   0.00000000000E+000   0.00000000000E+000   0.00000000000E+000   0.00000000000E+000   0.00000000000E+000   0.00000000000E+000   0.00000000000E+000   0.00000000000E+000   0.00000000000E+000   0.00000000000E+000   0.00000000000E+000   0.00000000000E+000   0.00000000000E+000   0.00000000000E+000   0.00000000000E+000   0.00000000000E+000   0.00000000000E+000   0.00000000000E+000   0.00000000000E+000   0.00000000000E+000   0.00000000000E+000   0.00000000000E+000   0.00000000000E+000   0.00000000000E+000   0.00000000000E+000   0.00000000000E+000   0.00000000000E+000   0.00000000000E+000   0.00000000000E+000   0.00000000000E+000
    -6.86001893231E+003   0.00000000000E+000   0.00000000000E+000   0.00000000000E+000   0.00000000000E+000   0.00000000000E+000  -2.82240112062E+005   0.00000000000E+000   0.00000000000E+000   0.00000000000E+000   0.00000000000E+000   0.00000000000E+000  -9.38083896931E+006   0.00000000000E+000   1.99671965511E+001  -5.59529101142E-002   9.82680351759E+007   0.00000000000E+000   0.00000000000E+000   0.00000000000E+000   0.00000000000E+000   0.00000000000E+000   0.00000000000E+000   0.00000000000E+000   0.00000000000E+000   0.00000000000E+000   0.00000000000E+000   0.00000000000E+000   0.00000000000E+000   0.00000000000E+000   0.00000000000E+000   0.00000000000E+000   0.00000000000E+000   0.00000000000E+000   0.00000000000E+000   0.00000000000E+000   0.00000000000E+000
     0.00000000000E+000   0.00000000000E+000   0.00000000000E+000   0.00000000000E+000   0.00000000000E+000   0.00000000000E+000   0.00000000000E+000  -2.82174119598E+005   0.00000000000E+000   0.00000000000E+000   0.00000000000E+000   0.00000000000E+000   0.00000000000E+000  -9.38088705685E+006   0.00000000000E+000  -9.82662446828E+007   0.00000000000E+000   1.78565319693E+003   0.00000000000E+000   0.00000000000E+000   0.00000000000E+000   0.00000000000E+000   0.00000000000E+000   0.00000000000E+000   0.00000000000E+000   0.00000000000E+000   0.00000000000E+000   0.00000000000E+000   0.00000000000E+000   0.00000000000E+000   0.00000000000E+000   0.00000000000E+000   0.00000000000E+000   0.00000000000E+000   0.00000000000E+000   0.00000000000E+000   0.00000000000E+000
     0.00000000000E+000   0.00000000000E+000  -4.39481570682E+006   0.00000000000E+000   3.89611303707E+003   0.00000000000E+000   0.00000000000E+000   0.00000000000E+000  -8.06331733325E+005   0.00000000000E+000   0.00000000000E+000   0.00000000000E+000   6.54808943743E+001   0.00000000000E+000  -2.41346861249E+007   0.00000000000E+000   1.76471002267E+004   0.00000000000E+000   0.00000000000E+000   0.00000000000E+000   0.00000000000E+000   0.00000000000E+000   0.00000000000E+000   0.00000000000E+000   0.00000000000E+000   0.00000000000E+000   0.00000000000E+000   0.00000000000E+000   0.00000000000E+000   0.00000000000E+000   0.00000000000E+000   0.00000000000E+000   0.00000000000E+000   0.00000000000E+000   0.00000000000E+000   0.00000000000E+000   0.00000000000E+000
     0.00000000000E+000   2.03830368588E+008   1.62065213576E+004  -2.13421463291E+009   0.00000000000E+000   8.88084589332E+004   0.00000000000E+000   0.00000000000E+000   0.00000000000E+000  -2.78327956291E+009   0.00000000000E+000   0.00000000000E+000   0.00000000000E+000  -9.82009770033E+007   0.00000000000E+000  -1.13246530020E+010   1.14591559914E+002   5.29413006802E+004   0.00000000000E+000  -2.03830368588E+008  -1.62065213576E+004   0.00000000000E+000   0.00000000000E+000   0.00000000000E+000   0.00000000000E+000   0.00000000000E+000   0.00000000000E+000   0.00000000000E+000   0.00000000000E+000   0.00000000000E+000   0.00000000000E+000   0.00000000000E+000   0.00000000000E+000   0.00000000000E+000   0.00000000000E+000   0.00000000000E+000   0.00000000000E+000
    -2.03830368588E+008   0.00000000000E+000  -5.07476931401E+004   0.00000000000E+000  -2.13398086613E+009   0.00000000000E+000   0.00000000000E+000   0.00000000000E+000   0.00000000000E+000   0.00000000000E+000  -2.78339598794E+009   0.00000000000E+000   9.82036617200E+007   0.00000000000E+000   1.93168638404E+004   0.00000000000E+000  -1.13240534590E+010   0.00000000000E+000   2.03830368588E+008   0.00000000000E+000   5.46110659082E+004   0.00000000000E+000   0.00000000000E+000   0.00000000000E+000   0.00000000000E+000   0.00000000000E+000   0.00000000000E+000   0.00000000000E+000   0.00000000000E+000   0.00000000000E+000   0.00000000000E+000   0.00000000000E+000   0.00000000000E+000   0.00000000000E+000   0.00000000000E+000   0.00000000000E+000   0.00000000000E+000
    -1.62313324778E+004   5.46429111087E+004   0.00000000000E+000   0.00000000000E+000   0.00000000000E+000   0.00000000000E+000   0.00000000000E+000   0.00000000000E+000   0.00000000000E+000   0.00000000000E+000   0.00000000000E+000  -2.51327434578E+009   0.00000000000E+000   1.55376442530E+003   0.00000000000E+000   4.40409831741E+004   0.00000000000E+000  -1.95913504720E+010   1.62313324778E+004  -5.46429111087E+004   0.00000000000E+000   0.00000000000E+000   0.00000000000E+000   0.00000000000E+000   0.00000000000E+000   0.00000000000E+000   0.00000000000E+000   0.00000000000E+000   0.00000000000E+000   0.00000000000E+000   0.00000000000E+000   0.00000000000E+000   0.00000000000E+000   0.00000000000E+000   0.00000000000E+000   0.00000000000E+000   0.00000000000E+000
