
Linearized model: Predictions were generated on 06-Feb-2024 at 08:44:08 using OpenFAST, compiled as a 64-bit application using single precision at commit v3.5.1
 linked with  NWTC Subroutine Library; ElastoDyn; InflowWind; AeroDyn; ServoDyn; HydroDyn; MAP++ (<1.20.10>, <Oct-20-2023>)

Description from the FAST input file: CCT-9 Campign 4 model. Input files to be run with OpenFAST 3.5.0. GitHub branch from Lu Wang (https://github.com/luwang00/openfast/tree/dev) compiled on March 7, 2023.

Simulation information:
   Simulation time:                  2500.2000 s
   Rotor Speed:                         0.8859 rad/s
   Azimuth:                             3.3278 rad
   Wind Speed:                         10.0000 m/s
   Number of continuous states:         0
   Number of discrete states:           0
   Number of constraint states:         0
   Number of inputs:                 1746
   Number of outputs:                   4
   Jacobians included in this file?    No

Order of inputs:
     Column   Operating Point                     Rotating Frame? Derivative Order Description
   ---------- ---------------                     --------------- ---------------- -----------
          1    1.391E+01                                 F               0         Tower X translation displacement, node 1, m
          2    4.400E-02                                 F               0         Tower Y translation displacement, node 1, m
          3   -1.889E-01                                 F               0         Tower Z translation displacement, node 1, m
          4    1.488E+01                                 F               0         Tower X translation displacement, node 2, m
          5    5.682E-02                                 F               0         Tower Y translation displacement, node 2, m
          6   -2.274E-01                                 F               0         Tower Z translation displacement, node 2, m
          7    1.588E+01                                 F               0         Tower X translation displacement, node 3, m
          8    6.984E-02                                 F               0         Tower Y translation displacement, node 3, m
          9   -2.676E-01                                 F               0         Tower Z translation displacement, node 3, m
         10    1.689E+01                                 F               0         Tower X translation displacement, node 4, m
         11    8.301E-02                                 F               0         Tower Y translation displacement, node 4, m
         12   -3.090E-01                                 F               0         Tower Z translation displacement, node 4, m
         13    1.791E+01                                 F               0         Tower X translation displacement, node 5, m
         14    9.630E-02                                 F               0         Tower Y translation displacement, node 5, m
         15   -3.514E-01                                 F               0         Tower Z translation displacement, node 5, m
         16    1.894E+01                                 F               0         Tower X translation displacement, node 6, m
         17    1.097E-01                                 F               0         Tower Y translation displacement, node 6, m
         18   -3.947E-01                                 F               0         Tower Z translation displacement, node 6, m
         19    1.998E+01                                 F               0         Tower X translation displacement, node 7, m
         20    1.232E-01                                 F               0         Tower Y translation displacement, node 7, m
         21   -4.385E-01                                 F               0         Tower Z translation displacement, node 7, m
         22    2.103E+01                                 F               0         Tower X translation displacement, node 8, m
         23    1.368E-01                                 F               0         Tower Y translation displacement, node 8, m
         24   -4.829E-01                                 F               0         Tower Z translation displacement, node 8, m
         25    2.208E+01                                 F               0         Tower X translation displacement, node 9, m
         26    1.504E-01                                 F               0         Tower Y translation displacement, node 9, m
         27   -5.276E-01                                 F               0         Tower Z translation displacement, node 9, m
         28    2.313E+01                                 F               0         Tower X translation displacement, node 10, m
         29    1.641E-01                                 F               0         Tower Y translation displacement, node 10, m
         30   -5.725E-01                                 F               0         Tower Z translation displacement, node 10, m
         31    2.418E+01                                 F               0         Tower X translation displacement, node 11, m
         32    1.777E-01                                 F               0         Tower Y translation displacement, node 11, m
         33   -6.175E-01                                 F               0         Tower Z translation displacement, node 11, m
         34    9.969E-01,  9.952E-04, -7.829E-02         F               0         Tower X orientation angle, node 1, rad
         35   -1.073E-03,  1.000E+00, -9.504E-04         F               0         Tower Y orientation angle, node 1, rad
         36    7.829E-02,  1.031E-03,  9.969E-01         F               0         Tower Z orientation angle, node 1, rad
         37    9.968E-01,  9.936E-04, -7.982E-02         F               0         Tower X orientation angle, node 2, rad
         38   -1.074E-03,  1.000E+00, -9.636E-04         F               0         Tower Y orientation angle, node 2, rad
         39    7.982E-02,  1.046E-03,  9.968E-01         F               0         Tower Z orientation angle, node 2, rad
         40    9.967E-01,  9.921E-04, -8.116E-02         F               0         Tower X orientation angle, node 3, rad
         41   -1.075E-03,  1.000E+00, -9.754E-04         F               0         Tower Y orientation angle, node 3, rad
         42    8.116E-02,  1.059E-03,  9.967E-01         F               0         Tower Z orientation angle, node 3, rad
         43    9.966E-01,  9.909E-04, -8.228E-02         F               0         Tower X orientation angle, node 4, rad
         44   -1.076E-03,  1.000E+00, -9.857E-04         F               0         Tower Y orientation angle, node 4, rad
         45    8.227E-02,  1.071E-03,  9.966E-01         F               0         Tower Z orientation angle, node 4, rad
         46    9.965E-01,  9.900E-04, -8.319E-02         F               0         Tower X orientation angle, node 5, rad
         47   -1.076E-03,  1.000E+00, -9.946E-04         F               0         Tower Y orientation angle, node 5, rad
         48    8.319E-02,  1.081E-03,  9.965E-01         F               0         Tower Z orientation angle, node 5, rad
         49    9.965E-01,  9.892E-04, -8.391E-02         F               0         Tower X orientation angle, node 6, rad
         50   -1.077E-03,  1.000E+00, -1.002E-03         F               0         Tower Y orientation angle, node 6, rad
         51    8.391E-02,  1.089E-03,  9.965E-01         F               0         Tower Z orientation angle, node 6, rad
         52    9.964E-01,  9.886E-04, -8.444E-02         F               0         Tower X orientation angle, node 7, rad
         53   -1.078E-03,  1.000E+00, -1.008E-03         F               0         Tower Y orientation angle, node 7, rad
         54    8.444E-02,  1.095E-03,  9.964E-01         F               0         Tower Z orientation angle, node 7, rad
         55    9.964E-01,  9.882E-04, -8.482E-02         F               0         Tower X orientation angle, node 8, rad
         56   -1.078E-03,  1.000E+00, -1.013E-03         F               0         Tower Y orientation angle, node 8, rad
         57    8.482E-02,  1.100E-03,  9.964E-01         F               0         Tower Z orientation angle, node 8, rad
         58    9.964E-01,  9.879E-04, -8.508E-02         F               0         Tower X orientation angle, node 9, rad
         59   -1.078E-03,  1.000E+00, -1.016E-03         F               0         Tower Y orientation angle, node 9, rad
         60    8.508E-02,  1.104E-03,  9.964E-01         F               0         Tower Z orientation angle, node 9, rad
         61    9.964E-01,  9.877E-04, -8.523E-02         F               0         Tower X orientation angle, node 10, rad
         62   -1.078E-03,  1.000E+00, -1.018E-03         F               0         Tower Y orientation angle, node 10, rad
         63    8.523E-02,  1.107E-03,  9.964E-01         F               0         Tower Z orientation angle, node 10, rad
         64    9.964E-01,  9.876E-04, -8.531E-02         F               0         Tower X orientation angle, node 11, rad
         65   -1.079E-03,  1.000E+00, -1.020E-03         F               0         Tower Y orientation angle, node 11, rad
         66    8.531E-02,  1.108E-03,  9.964E-01         F               0         Tower Z orientation angle, node 11, rad
         67    4.655E-04                                 F               0         Tower X translation velocity, node 1, m/s
         68    9.522E-03                                 F               0         Tower Y translation velocity, node 1, m/s
         69    2.494E-03                                 F               0         Tower Z translation velocity, node 1, m/s
         70    5.572E-04                                 F               0         Tower X translation velocity, node 2, m/s
         71    1.613E-02                                 F               0         Tower Y translation velocity, node 2, m/s
         72    2.480E-03                                 F               0         Tower Z translation velocity, node 2, m/s
         73    5.985E-04                                 F               0         Tower X translation velocity, node 3, m/s
         74    2.289E-02                                 F               0         Tower Y translation velocity, node 3, m/s
         75    2.469E-03                                 F               0         Tower Z translation velocity, node 3, m/s
         76    5.994E-04                                 F               0         Tower X translation velocity, node 4, m/s
         77    2.977E-02                                 F               0         Tower Y translation velocity, node 4, m/s
         78    2.462E-03                                 F               0         Tower Z translation velocity, node 4, m/s
         79    5.648E-04                                 F               0         Tower X translation velocity, node 5, m/s
         80    3.675E-02                                 F               0         Tower Y translation velocity, node 5, m/s
         81    2.457E-03                                 F               0         Tower Z translation velocity, node 5, m/s
         82    4.995E-04                                 F               0         Tower X translation velocity, node 6, m/s
         83    4.382E-02                                 F               0         Tower Y translation velocity, node 6, m/s
         84    2.455E-03                                 F               0         Tower Z translation velocity, node 6, m/s
         85    4.100E-04                                 F               0         Tower X translation velocity, node 7, m/s
         86    5.095E-02                                 F               0         Tower Y translation velocity, node 7, m/s
         87    2.455E-03                                 F               0         Tower Z translation velocity, node 7, m/s
         88    2.990E-04                                 F               0         Tower X translation velocity, node 8, m/s
         89    5.815E-02                                 F               0         Tower Y translation velocity, node 8, m/s
         90    2.456E-03                                 F               0         Tower Z translation velocity, node 8, m/s
         91    1.711E-04                                 F               0         Tower X translation velocity, node 9, m/s
         92    6.539E-02                                 F               0         Tower Y translation velocity, node 9, m/s
         93    2.459E-03                                 F               0         Tower Z translation velocity, node 9, m/s
         94    3.126E-05                                 F               0         Tower X translation velocity, node 10, m/s
         95    7.266E-02                                 F               0         Tower Y translation velocity, node 10, m/s
         96    2.463E-03                                 F               0         Tower Z translation velocity, node 10, m/s
         97   -1.159E-04                                 F               0         Tower X translation velocity, node 11, m/s
         98    7.996E-02                                 F               0         Tower Y translation velocity, node 11, m/s
         99    2.467E-03                                 F               0         Tower Z translation velocity, node 11, m/s
        100    2.489E+01                                 F               0         Hub X translation displacement, node 1, m
        101    1.758E-01                                 F               0         Hub Y translation displacement, node 1, m
        102    2.752E-01                                 F               0         Hub Z translation displacement, node 1, m
        103    9.820E-01,  8.664E-04, -1.890E-01         F               0         Hub X orientation angle, node 1, rad
        104   -3.392E-02, -9.829E-01, -1.808E-01         F               0         Hub Y orientation angle, node 1, rad
        105   -1.859E-01,  1.839E-01, -9.652E-01         F               0         Hub Z orientation angle, node 1, rad
        106    8.693E-01                                 F               0         Hub X rotation velocity, node 1, rad/s
        107    7.557E-04                                 F               0         Hub Y rotation velocity, node 1, rad/s
        108   -1.672E-01                                 F               0         Hub Z rotation velocity, node 1, rad/s
        109    9.826E-01,  3.003E-02, -1.835E-01         F               0         Blade root 1 X orientation angle, node 1, rad
        110   -4.774E-03, -9.825E-01, -1.863E-01         F               0         Blade root 1 Y orientation angle, node 1, rad
        111   -1.859E-01,  1.839E-01, -9.652E-01         F               0         Blade root 1 Z orientation angle, node 1, rad
        112    9.858E-01, -1.844E-02, -1.668E-01         F               0         Blade root 2 X orientation angle, node 1, rad
        113   -1.149E-01,  6.505E-01, -7.508E-01         F               0         Blade root 2 Y orientation angle, node 1, rad
        114    1.223E-01,  7.593E-01,  6.391E-01         F               0         Blade root 2 Z orientation angle, node 1, rad
        115    9.763E-01, -8.989E-03, -2.164E-01         F               0         Blade root 3 X orientation angle, node 1, rad
        116    2.070E-01,  3.321E-01,  9.203E-01         F               0         Blade root 3 Y orientation angle, node 1, rad
        117    6.358E-02, -9.432E-01,  3.261E-01         F               0         Blade root 3 Z orientation angle, node 1, rad
        118    2.328E+01                                 F               0         Blade 1 X translation displacement, node 1, m
        119    1.195E+00                                 F               0         Blade 1 Y translation displacement, node 1, m
        120   -1.058E+01                                 F               0         Blade 1 Z translation displacement, node 1, m
        121    2.290E+01                                 F               0         Blade 1 X translation displacement, node 2, m
        122    1.440E+00                                 F               0         Blade 1 Y translation displacement, node 2, m
        123   -1.320E+01                                 F               0         Blade 1 Z translation displacement, node 2, m
        124    1.762E+01                                 F               0         Blade 1 X translation displacement, node 3, m
        125    4.779E+00                                 F               0         Blade 1 Y translation displacement, node 3, m
        126   -4.877E+01                                 F               0         Blade 1 Z translation displacement, node 3, m
        127    1.650E+01                                 F               0         Blade 1 X translation displacement, node 4, m
        128    5.490E+00                                 F               0         Blade 1 Y translation displacement, node 4, m
        129   -5.635E+01                                 F               0         Blade 1 Z translation displacement, node 4, m
        130    1.538E+01                                 F               0         Blade 1 X translation displacement, node 5, m
        131    6.201E+00                                 F               0         Blade 1 Y translation displacement, node 5, m
        132   -6.393E+01                                 F               0         Blade 1 Z translation displacement, node 5, m
        133    1.425E+01                                 F               0         Blade 1 X translation displacement, node 6, m
        134    6.913E+00                                 F               0         Blade 1 Y translation displacement, node 6, m
        135   -7.151E+01                                 F               0         Blade 1 Z translation displacement, node 6, m
        136    1.313E+01                                 F               0         Blade 1 X translation displacement, node 7, m
        137    7.624E+00                                 F               0         Blade 1 Y translation displacement, node 7, m
        138   -7.909E+01                                 F               0         Blade 1 Z translation displacement, node 7, m
        139    1.201E+01                                 F               0         Blade 1 X translation displacement, node 8, m
        140    8.335E+00                                 F               0         Blade 1 Y translation displacement, node 8, m
        141   -8.667E+01                                 F               0         Blade 1 Z translation displacement, node 8, m
        142    1.088E+01                                 F               0         Blade 1 X translation displacement, node 9, m
        143    9.046E+00                                 F               0         Blade 1 Y translation displacement, node 9, m
        144   -9.425E+01                                 F               0         Blade 1 Z translation displacement, node 9, m
        145    9.761E+00                                 F               0         Blade 1 X translation displacement, node 10, m
        146    9.758E+00                                 F               0         Blade 1 Y translation displacement, node 10, m
        147   -1.018E+02                                 F               0         Blade 1 Z translation displacement, node 10, m
        148    8.638E+00                                 F               0         Blade 1 X translation displacement, node 11, m
        149    1.047E+01                                 F               0         Blade 1 Y translation displacement, node 11, m
        150   -1.094E+02                                 F               0         Blade 1 Z translation displacement, node 11, m
        151    7.514E+00                                 F               0         Blade 1 X translation displacement, node 12, m
        152    1.118E+01                                 F               0         Blade 1 Y translation displacement, node 12, m
        153   -1.170E+02                                 F               0         Blade 1 Z translation displacement, node 12, m
        154    6.391E+00                                 F               0         Blade 1 X translation displacement, node 13, m
        155    1.189E+01                                 F               0         Blade 1 Y translation displacement, node 13, m
        156   -1.246E+02                                 F               0         Blade 1 Z translation displacement, node 13, m
        157    5.268E+00                                 F               0         Blade 1 X translation displacement, node 14, m
        158    1.260E+01                                 F               0         Blade 1 Y translation displacement, node 14, m
        159   -1.321E+02                                 F               0         Blade 1 Z translation displacement, node 14, m
        160    4.144E+00                                 F               0         Blade 1 X translation displacement, node 15, m
        161    1.331E+01                                 F               0         Blade 1 Y translation displacement, node 15, m
        162   -1.397E+02                                 F               0         Blade 1 Z translation displacement, node 15, m
        163    3.021E+00                                 F               0         Blade 1 X translation displacement, node 16, m
        164    1.403E+01                                 F               0         Blade 1 Y translation displacement, node 16, m
        165   -1.473E+02                                 F               0         Blade 1 Z translation displacement, node 16, m
        166    1.897E+00                                 F               0         Blade 1 X translation displacement, node 17, m
        167    1.474E+01                                 F               0         Blade 1 Y translation displacement, node 17, m
        168   -1.549E+02                                 F               0         Blade 1 Z translation displacement, node 17, m
        169    7.742E-01                                 F               0         Blade 1 X translation displacement, node 18, m
        170    1.545E+01                                 F               0         Blade 1 Y translation displacement, node 18, m
        171   -1.625E+02                                 F               0         Blade 1 Z translation displacement, node 18, m
        172   -3.494E-01                                 F               0         Blade 1 X translation displacement, node 19, m
        173    1.616E+01                                 F               0         Blade 1 Y translation displacement, node 19, m
        174   -1.700E+02                                 F               0         Blade 1 Z translation displacement, node 19, m
        175   -1.473E+00                                 F               0         Blade 1 X translation displacement, node 20, m
        176    1.687E+01                                 F               0         Blade 1 Y translation displacement, node 20, m
        177   -1.776E+02                                 F               0         Blade 1 Z translation displacement, node 20, m
        178   -2.596E+00                                 F               0         Blade 1 X translation displacement, node 21, m
        179    1.758E+01                                 F               0         Blade 1 Y translation displacement, node 21, m
        180   -1.852E+02                                 F               0         Blade 1 Z translation displacement, node 21, m
        181   -3.719E+00                                 F               0         Blade 1 X translation displacement, node 22, m
        182    1.829E+01                                 F               0         Blade 1 Y translation displacement, node 22, m
        183   -1.928E+02                                 F               0         Blade 1 Z translation displacement, node 22, m
        184   -4.843E+00                                 F               0         Blade 1 X translation displacement, node 23, m
        185    1.900E+01                                 F               0         Blade 1 Y translation displacement, node 23, m
        186   -2.004E+02                                 F               0         Blade 1 Z translation displacement, node 23, m
        187   -5.966E+00                                 F               0         Blade 1 X translation displacement, node 24, m
        188    1.972E+01                                 F               0         Blade 1 Y translation displacement, node 24, m
        189   -2.079E+02                                 F               0         Blade 1 Z translation displacement, node 24, m
        190   -7.089E+00                                 F               0         Blade 1 X translation displacement, node 25, m
        191    2.043E+01                                 F               0         Blade 1 Y translation displacement, node 25, m
        192   -2.155E+02                                 F               0         Blade 1 Z translation displacement, node 25, m
        193   -8.213E+00                                 F               0         Blade 1 X translation displacement, node 26, m
        194    2.114E+01                                 F               0         Blade 1 Y translation displacement, node 26, m
        195   -2.231E+02                                 F               0         Blade 1 Z translation displacement, node 26, m
        196   -9.336E+00                                 F               0         Blade 1 X translation displacement, node 27, m
        197    2.185E+01                                 F               0         Blade 1 Y translation displacement, node 27, m
        198   -2.307E+02                                 F               0         Blade 1 Z translation displacement, node 27, m
        199   -1.029E+01                                 F               0         Blade 1 X translation displacement, node 28, m
        200    2.245E+01                                 F               0         Blade 1 Y translation displacement, node 28, m
        201   -2.371E+02                                 F               0         Blade 1 Z translation displacement, node 28, m
        202    8.766E-01,  4.747E-01, -7.840E-02         F               0         Blade 1 X orientation angle, node 1, rad
        203    4.438E-01, -8.607E-01, -2.495E-01         F               0         Blade 1 Y orientation angle, node 1, rad
        204   -1.859E-01,  1.839E-01, -9.652E-01         F               0         Blade 1 Z orientation angle, node 1, rad
        205    8.766E-01,  4.747E-01, -7.840E-02         F               0         Blade 1 X orientation angle, node 2, rad
        206    4.438E-01, -8.607E-01, -2.495E-01         F               0         Blade 1 Y orientation angle, node 2, rad
        207   -1.859E-01,  1.839E-01, -9.652E-01         F               0         Blade 1 Z orientation angle, node 2, rad
        208    9.568E-01,  2.572E-01, -1.353E-01         F               0         Blade 1 X orientation angle, node 3, rad
        209    2.234E-01, -9.487E-01, -2.238E-01         F               0         Blade 1 Y orientation angle, node 3, rad
        210   -1.859E-01,  1.839E-01, -9.652E-01         F               0         Blade 1 Z orientation angle, node 3, rad
        211    9.654E-01,  2.169E-01, -1.446E-01         F               0         Blade 1 X orientation angle, node 4, rad
        212    1.828E-01, -9.587E-01, -2.179E-01         F               0         Blade 1 Y orientation angle, node 4, rad
        213   -1.859E-01,  1.839E-01, -9.652E-01         F               0         Blade 1 Z orientation angle, node 4, rad
        214    9.709E-01,  1.850E-01, -1.518E-01         F               0         Blade 1 X orientation angle, node 5, rad
        215    1.507E-01, -9.654E-01, -2.130E-01         F               0         Blade 1 Y orientation angle, node 5, rad
        216   -1.859E-01,  1.839E-01, -9.652E-01         F               0         Blade 1 Z orientation angle, node 5, rad
        217    9.746E-01,  1.594E-01, -1.574E-01         F               0         Blade 1 X orientation angle, node 6, rad
        218    1.249E-01, -9.699E-01, -2.089E-01         F               0         Blade 1 Y orientation angle, node 6, rad
        219   -1.859E-01,  1.839E-01, -9.652E-01         F               0         Blade 1 Z orientation angle, node 6, rad
        220    9.771E-01,  1.382E-01, -1.619E-01         F               0         Blade 1 X orientation angle, node 7, rad
        221    1.036E-01, -9.732E-01, -2.054E-01         F               0         Blade 1 Y orientation angle, node 7, rad
        222   -1.859E-01,  1.839E-01, -9.652E-01         F               0         Blade 1 Z orientation angle, node 7, rad
        223    9.788E-01,  1.205E-01, -1.656E-01         F               0         Blade 1 X orientation angle, node 8, rad
        224    8.583E-02, -9.755E-01, -2.024E-01         F               0         Blade 1 Y orientation angle, node 8, rad
        225   -1.859E-01,  1.839E-01, -9.652E-01         F               0         Blade 1 Z orientation angle, node 8, rad
        226    9.800E-01,  1.055E-01, -1.687E-01         F               0         Blade 1 X orientation angle, node 9, rad
        227    7.079E-02, -9.773E-01, -1.998E-01         F               0         Blade 1 Y orientation angle, node 9, rad