
Linearized model: Predictions were generated on 12-Jan-2024 at 09:28:28 using OpenFAST, compiled as a 64-bit application using single precision at commit v3.5.1
 linked with  NWTC Subroutine Library; ElastoDyn; InflowWind; AeroDyn; ServoDyn; HydroDyn; MAP++ (<1.20.10>, <Oct-20-2023>)

Description from the FAST input file: CCT-9 Campign 4 model. Input files to be run with OpenFAST 3.5.0. GitHub branch from Lu Wang (https://github.com/luwang00/openfast/tree/dev) compiled on March 7, 2023.

Simulation information:
   Simulation time:                   506.1750 s
   Rotor Speed:                         0.8777 rad/s
   Azimuth:                             2.9895 rad
   Wind Speed:                         10.0000 m/s
   Number of continuous states:         0
   Number of discrete states:           0
   Number of constraint states:         0
   Number of inputs:                    9
   Number of outputs:                   3
   Jacobians included in this file?    No

Order of inputs:
     Column   Operating Point                     Rotating Frame? Derivative Order Description
   ---------- ---------------                     --------------- ---------------- -----------
          1    7.153E+00                                 F               0         PtFairDisplacement X translation displacement, node 1, m
          2    6.733E-01                                 F               0         PtFairDisplacement Y translation displacement, node 1, m
          3   -6.019E+00                                 F               0         PtFairDisplacement Z translation displacement, node 1, m
          4    6.703E+00                                 F               0         PtFairDisplacement X translation displacement, node 2, m
          5    5.476E-01                                 F               0         PtFairDisplacement Y translation displacement, node 2, m
          6   -1.013E+00                                 F               0         PtFairDisplacement Z translation displacement, node 2, m
          7    7.550E+00                                 F               0         PtFairDisplacement X translation displacement, node 3, m
          8   -2.800E-01                                 F               0         PtFairDisplacement Y translation displacement, node 3, m
          9    6.939E+00                                 F               0         PtFairDisplacement Z translation displacement, node 3, m

Order of outputs:
        Row   Operating Point                     Rotating Frame? Derivative Order Description
   ---------- ---------------                     --------------- ---------------- -----------
          1    2.945E+06                                 F               0         T[1], [N]
          2    2.759E+06                                 F               0         T[2], [N]
          3    4.365E+06                                 F               0         T[3], [N]


Linearized state matrices:

D: 3 x 9
   -6.150E+04  1.099E+05 -3.003E+03  0.000E+00  0.000E+00  0.000E+00  0.000E+00  0.000E+00  0.000E+00
    0.000E+00  0.000E+00  0.000E+00 -6.178E+04 -1.110E+05 -8.006E+02  0.000E+00  0.000E+00  0.000E+00
    0.000E+00  0.000E+00  0.000E+00  0.000E+00  0.000E+00  0.000E+00  1.228E+05 -2.926E+03  6.875E+03
