
Linearized model: Predictions were generated on 06-Feb-2024 at 08:44:08 using OpenFAST, compiled as a 64-bit application using single precision at commit v3.5.1
 linked with  NWTC Subroutine Library; ElastoDyn; InflowWind; AeroDyn; ServoDyn; HydroDyn; MAP++ (<1.20.10>, <Oct-20-2023>)

Description from the FAST input file: CCT-9 Campign 4 model. Input files to be run with OpenFAST 3.5.0. GitHub branch from Lu Wang (https://github.com/luwang00/openfast/tree/dev) compiled on March 7, 2023.

Simulation information:
   Simulation time:                  2504.2000 s
   Rotor Speed:                         0.8853 rad/s
   Azimuth:                             0.5873 rad
   Wind Speed:                         10.0000 m/s
   Number of continuous states:        22
   Number of discrete states:           0
   Number of constraint states:         0
   Number of inputs:                 1890
   Number of outputs:                  19
   Jacobians included in this file?    No

Order of continuous states:
   Row/Column Operating Point                     Rotating Frame? Derivative Order Description
   ---------- ---------------                     --------------- ---------------- -----------
          1    1.247E+01                                 F               2         Platform horizontal surge translation DOF (internal DOF index = DOF_Sg), m
          2    2.512E-02                                 F               2         Platform horizontal sway translation DOF (internal DOF index = DOF_Sw), m
          3   -1.268E-01                                 F               2         Platform vertical heave translation DOF (internal DOF index = DOF_Hv), m
          4   -2.713E-03                                 F               2         Platform roll tilt rotation DOF (internal DOF index = DOF_R), rad
          5    7.852E-02                                 F               2         Platform pitch tilt rotation DOF (internal DOF index = DOF_P), rad
          6    1.438E-03                                 F               2         Platform yaw rotation DOF (internal DOF index = DOF_Y), rad
          7    6.088E-01                                 F               2         1st tower fore-aft bending mode DOF (internal DOF index = DOF_TFA1), m
          8   -1.894E-02                                 F               2         1st tower side-to-side bending mode DOF (internal DOF index = DOF_TSS1), m
          9    1.431E-03                                 F               2         2nd tower fore-aft bending mode DOF (internal DOF index = DOF_TFA2), m
         10   -4.629E-06                                 F               2         2nd tower side-to-side bending mode DOF (internal DOF index = DOF_TSS2), m
         11    5.300E+00                                 F               2         Variable speed generator DOF (internal DOF index = DOF_GeAz), rad
         12    1.440E-04                                 F               2         First time derivative of Platform horizontal surge translation DOF (internal DOF index = DOF_Sg), m/s
         13    8.316E-04                                 F               2         First time derivative of Platform horizontal sway translation DOF (internal DOF index = DOF_Sw), m/s
         14    2.340E-04                                 F               2         First time derivative of Platform vertical heave translation DOF (internal DOF index = DOF_Hv), m/s
         15   -3.317E-04                                 F               2         First time derivative of Platform roll tilt rotation DOF (internal DOF index = DOF_R), rad/s
         16    5.938E-06                                 F               2         First time derivative of Platform pitch tilt rotation DOF (internal DOF index = DOF_P), rad/s
         17   -3.532E-06                                 F               2         First time derivative of Platform yaw rotation DOF (internal DOF index = DOF_Y), rad/s
         18   -6.593E-04                                 F               2         First time derivative of 1st tower fore-aft bending mode DOF (internal DOF index = DOF_TFA1), m/s
         19    5.232E-04                                 F               2         First time derivative of 1st tower side-to-side bending mode DOF (internal DOF index = DOF_TSS1), m/s
         20   -1.477E-06                                 F               2         First time derivative of 2nd tower fore-aft bending mode DOF (internal DOF index = DOF_TFA2), m/s
         21   -2.021E-06                                 F               2         First time derivative of 2nd tower side-to-side bending mode DOF (internal DOF index = DOF_TSS2), m/s
         22    8.853E-01                                 F               2         First time derivative of Variable speed generator DOF (internal DOF index = DOF_GeAz), rad/s

Order of continuous state derivatives:
   Row/Column Operating Point                     Rotating Frame? Derivative Order Description
   ---------- ---------------                     --------------- ---------------- -----------
          1    1.440E-04                                 F               2         First time derivative of Platform horizontal surge translation DOF (internal DOF index = DOF_Sg), m/s
          2    8.316E-04                                 F               2         First time derivative of Platform horizontal sway translation DOF (internal DOF index = DOF_Sw), m/s
          3    2.340E-04                                 F               2         First time derivative of Platform vertical heave translation DOF (internal DOF index = DOF_Hv), m/s
          4   -3.317E-04                                 F               2         First time derivative of Platform roll tilt rotation DOF (internal DOF index = DOF_R), rad/s
          5    5.938E-06                                 F               2         First time derivative of Platform pitch tilt rotation DOF (internal DOF index = DOF_P), rad/s
          6   -3.532E-06                                 F               2         First time derivative of Platform yaw rotation DOF (internal DOF index = DOF_Y), rad/s
          7   -6.593E-04                                 F               2         First time derivative of 1st tower fore-aft bending mode DOF (internal DOF index = DOF_TFA1), m/s
          8    5.232E-04                                 F               2         First time derivative of 1st tower side-to-side bending mode DOF (internal DOF index = DOF_TSS1), m/s
          9   -1.477E-06                                 F               2         First time derivative of 2nd tower fore-aft bending mode DOF (internal DOF index = DOF_TFA2), m/s
         10   -2.021E-06                                 F               2         First time derivative of 2nd tower side-to-side bending mode DOF (internal DOF index = DOF_TSS2), m/s
         11    8.853E-01                                 F               2         First time derivative of Variable speed generator DOF (internal DOF index = DOF_GeAz), rad/s
         12    4.241E-04                                 F               2         First time derivative of First time derivative of Platform horizontal surge translation DOF (internal DOF index = DOF_Sg), m/s/s
         13    2.039E-04                                 F               2         First time derivative of First time derivative of Platform horizontal sway translation DOF (internal DOF index = DOF_Sw), m/s/s
         14   -5.311E-04                                 F               2         First time derivative of First time derivative of Platform vertical heave translation DOF (internal DOF index = DOF_Hv), m/s/s
         15    8.241E-05                                 F               2         First time derivative of First time derivative of Platform roll tilt rotation DOF (internal DOF index = DOF_R), rad/s/s
         16    2.679E-05                                 F               2         First time derivative of First time derivative of Platform pitch tilt rotation DOF (internal DOF index = DOF_P), rad/s/s
         17   -5.481E-05                                 F               2         First time derivative of First time derivative of Platform yaw rotation DOF (internal DOF index = DOF_Y), rad/s/s
         18   -5.265E-03                                 F               2         First time derivative of First time derivative of 1st tower fore-aft bending mode DOF (internal DOF index = DOF_TFA1), m/s/s
         19    4.815E-04                                 F               2         First time derivative of First time derivative of 1st tower side-to-side bending mode DOF (internal DOF index = DOF_TSS1), m/s/s
         20   -2.444E-06                                 F               2         First time derivative of First time derivative of 2nd tower fore-aft bending mode DOF (internal DOF index = DOF_TFA2), m/s/s
         21   -1.469E-06                                 F               2         First time derivative of First time derivative of 2nd tower side-to-side bending mode DOF (internal DOF index = DOF_TSS2), m/s/s
         22   -1.813E-04                                 F               2         First time derivative of First time derivative of Variable speed generator DOF (internal DOF index = DOF_GeAz), rad/s/s

Order of inputs:
     Column   Operating Point                     Rotating Frame? Derivative Order Description
   ---------- ---------------                     --------------- ---------------- -----------
          1    8.594E+01                                 F               0         Blade 1 X force, node 1, N
          2    8.683E+01                                 F               0         Blade 1 Y force, node 1, N
          3    4.187E+01                                 F               0         Blade 1 Z force, node 1, N
          4    3.352E+02                                 F               0         Blade 1 X force, node 2, N
          5    1.573E+02                                 F               0         Blade 1 Y force, node 2, N
          6    4.116E+01                                 F               0         Blade 1 Z force, node 2, N
          7    4.129E+02                                 F               0         Blade 1 X force, node 3, N
          8    1.063E+02                                 F               0         Blade 1 Y force, node 3, N
          9   -8.139E+00                                 F               0         Blade 1 Z force, node 3, N
         10    5.266E+02                                 F               0         Blade 1 X force, node 4, N
         11    7.534E+01                                 F               0         Blade 1 Y force, node 4, N
         12   -5.097E+01                                 F               0         Blade 1 Z force, node 4, N
         13    6.402E+02                                 F               0         Blade 1 X force, node 5, N
         14    4.433E+01                                 F               0         Blade 1 Y force, node 5, N
         15   -9.381E+01                                 F               0         Blade 1 Z force, node 5, N
         16    7.538E+02                                 F               0         Blade 1 X force, node 6, N
         17    1.332E+01                                 F               0         Blade 1 Y force, node 6, N
         18   -1.366E+02                                 F               0         Blade 1 Z force, node 6, N
         19    8.675E+02                                 F               0         Blade 1 X force, node 7, N
         20   -1.769E+01                                 F               0         Blade 1 Y force, node 7, N
         21   -1.795E+02                                 F               0         Blade 1 Z force, node 7, N
         22    9.811E+02                                 F               0         Blade 1 X force, node 8, N
         23   -4.870E+01                                 F               0         Blade 1 Y force, node 8, N
         24   -2.223E+02                                 F               0         Blade 1 Z force, node 8, N
         25    1.095E+03                                 F               0         Blade 1 X force, node 9, N
         26   -7.971E+01                                 F               0         Blade 1 Y force, node 9, N
         27   -2.651E+02                                 F               0         Blade 1 Z force, node 9, N
         28    1.208E+03                                 F               0         Blade 1 X force, node 10, N
         29   -1.107E+02                                 F               0         Blade 1 Y force, node 10, N
         30   -3.080E+02                                 F               0         Blade 1 Z force, node 10, N
         31    1.322E+03                                 F               0         Blade 1 X force, node 11, N
         32   -1.417E+02                                 F               0         Blade 1 Y force, node 11, N
         33   -3.508E+02                                 F               0         Blade 1 Z force, node 11, N
         34    1.436E+03                                 F               0         Blade 1 X force, node 12, N
         35   -1.727E+02                                 F               0         Blade 1 Y force, node 12, N
         36   -3.936E+02                                 F               0         Blade 1 Z force, node 12, N
         37    1.549E+03                                 F               0         Blade 1 X force, node 13, N
         38   -2.038E+02                                 F               0         Blade 1 Y force, node 13, N
         39   -4.365E+02                                 F               0         Blade 1 Z force, node 13, N
         40    1.663E+03                                 F               0         Blade 1 X force, node 14, N
         41   -2.348E+02                                 F               0         Blade 1 Y force, node 14, N
         42   -4.793E+02                                 F               0         Blade 1 Z force, node 14, N
         43    1.777E+03                                 F               0         Blade 1 X force, node 15, N
         44   -2.658E+02                                 F               0         Blade 1 Y force, node 15, N
         45   -5.221E+02                                 F               0         Blade 1 Z force, node 15, N
         46    1.890E+03                                 F               0         Blade 1 X force, node 16, N
         47   -2.968E+02                                 F               0         Blade 1 Y force, node 16, N
         48   -5.650E+02                                 F               0         Blade 1 Z force, node 16, N
         49    2.326E+03                                 F               0         Blade 1 X force, node 17, N
         50   -3.786E+02                                 F               0         Blade 1 Y force, node 17, N
         51   -7.042E+02                                 F               0         Blade 1 Z force, node 17, N
         52    1.792E+03                                 F               0         Blade 1 X force, node 18, N
         53   -2.817E+02                                 F               0         Blade 1 Y force, node 18, N
         54   -5.358E+02                                 F               0         Blade 1 Z force, node 18, N
         55    2.223E+03                                 F               0         Blade 1 X force, node 19, N
         56   -3.303E+02                                 F               0         Blade 1 Y force, node 19, N
         57   -6.518E+02                                 F               0         Blade 1 Z force, node 19, N
         58    1.914E+03                                 F               0         Blade 1 X force, node 20, N
         59   -2.696E+02                                 F               0         Blade 1 Y force, node 20, N
         60   -5.513E+02                                 F               0         Blade 1 Z force, node 20, N
         61    2.858E+03                                 F               0         Blade 1 X force, node 21, N
         62   -3.778E+02                                 F               0         Blade 1 Y force, node 21, N
         63   -8.064E+02                                 F               0         Blade 1 Z force, node 21, N
         64    2.549E+03                                 F               0         Blade 1 X force, node 22, N
         65   -3.157E+02                                 F               0         Blade 1 Y force, node 22, N
         66   -7.049E+02                                 F               0         Blade 1 Z force, node 22, N
         67    2.641E+03                                 F               0         Blade 1 X force, node 23, N
         68   -3.082E+02                                 F               0         Blade 1 Y force, node 23, N
         69   -7.177E+02                                 F               0         Blade 1 Z force, node 23, N
         70    2.781E+03                                 F               0         Blade 1 X force, node 24, N
         71   -3.060E+02                                 F               0         Blade 1 Y force, node 24, N
         72   -7.432E+02                                 F               0         Blade 1 Z force, node 24, N
         73    2.872E+03                                 F               0         Blade 1 X force, node 25, N
         74   -2.976E+02                                 F               0         Blade 1 Y force, node 25, N
         75   -7.553E+02                                 F               0         Blade 1 Z force, node 25, N
         76    2.979E+03                                 F               0         Blade 1 X force, node 26, N
         77   -2.909E+02                                 F               0         Blade 1 Y force, node 26, N
         78   -7.714E+02                                 F               0         Blade 1 Z force, node 26, N
         79    3.596E+03                                 F               0         Blade 1 X force, node 27, N
         80   -3.299E+02                                 F               0         Blade 1 Y force, node 27, N
         81   -9.168E+02                                 F               0         Blade 1 Z force, node 27, N
         82    2.684E+03                                 F               0         Blade 1 X force, node 28, N
         83   -2.314E+02                                 F               0         Blade 1 Y force, node 28, N
         84   -6.742E+02                                 F               0         Blade 1 Z force, node 28, N
         85    3.300E+03                                 F               0         Blade 1 X force, node 29, N
         86   -2.698E+02                                 F               0         Blade 1 Y force, node 29, N
         87   -8.192E+02                                 F               0         Blade 1 Z force, node 29, N
         88    2.822E+03                                 F               0         Blade 1 X force, node 30, N
         89   -2.189E+02                                 F               0         Blade 1 Y force, node 30, N
         90   -6.924E+02                                 F               0         Blade 1 Z force, node 30, N
         91    4.099E+03                                 F               0         Blade 1 X force, node 31, N
         92   -2.987E+02                                 F               0         Blade 1 Y force, node 31, N
         93   -9.930E+02                                 F               0         Blade 1 Z force, node 31, N
         94    3.620E+03                                 F               0         Blade 1 X force, node 32, N
         95   -2.473E+02                                 F               0         Blade 1 Y force, node 32, N
         96   -8.658E+02                                 F               0         Blade 1 Z force, node 32, N
         97    3.726E+03                                 F               0         Blade 1 X force, node 33, N
         98   -2.394E+02                                 F               0         Blade 1 Y force, node 33, N
         99   -8.809E+02                                 F               0         Blade 1 Z force, node 33, N
        100    3.833E+03                                 F               0         Blade 1 X force, node 34, N
        101   -2.316E+02                                 F               0         Blade 1 Y force, node 34, N
        102   -8.963E+02                                 F               0         Blade 1 Z force, node 34, N
        103    3.939E+03                                 F               0         Blade 1 X force, node 35, N
        104   -2.236E+02                                 F               0         Blade 1 Y force, node 35, N
        105   -9.114E+02                                 F               0         Blade 1 Z force, node 35, N
        106    4.045E+03                                 F               0         Blade 1 X force, node 36, N
        107   -2.154E+02                                 F               0         Blade 1 Y force, node 36, N
        108   -9.263E+02                                 F               0         Blade 1 Z force, node 36, N
        109    4.857E+03                                 F               0         Blade 1 X force, node 37, N
        110   -2.416E+02                                 F               0         Blade 1 Y force, node 37, N
        111   -1.101E+03                                 F               0         Blade 1 Z force, node 37, N
        112    3.550E+03                                 F               0         Blade 1 X force, node 38, N
        113   -1.648E+02                                 F               0         Blade 1 Y force, node 38, N
        114   -7.967E+02                                 F               0         Blade 1 Z force, node 38, N
        115    4.364E+03                                 F               0         Blade 1 X force, node 39, N
        116   -1.908E+02                                 F               0         Blade 1 Y force, node 39, N
        117   -9.714E+02                                 F               0         Blade 1 Z force, node 39, N
        118    3.731E+03                                 F               0         Blade 1 X force, node 40, N
        119   -1.535E+02                                 F               0         Blade 1 Y force, node 40, N
        120   -8.241E+02                                 F               0         Blade 1 Z force, node 40, N
        121    5.316E+03                                 F               0         Blade 1 X force, node 41, N
        122   -2.031E+02                                 F               0         Blade 1 Y force, node 41, N
        123   -1.164E+03                                 F               0         Blade 1 Z force, node 41, N
        124    4.682E+03                                 F               0         Blade 1 X force, node 42, N
        125   -1.655E+02                                 F               0         Blade 1 Y force, node 42, N
        126   -1.016E+03                                 F               0         Blade 1 Z force, node 42, N
        127    4.786E+03                                 F               0         Blade 1 X force, node 43, N
        128   -1.568E+02                                 F               0         Blade 1 Y force, node 43, N
        129   -1.030E+03                                 F               0         Blade 1 Z force, node 43, N
        130    4.917E+03                                 F               0         Blade 1 X force, node 44, N
        131   -1.489E+02                                 F               0         Blade 1 Y force, node 44, N
        132   -1.050E+03                                 F               0         Blade 1 Z force, node 44, N
        133    4.970E+03                                 F               0         Blade 1 X force, node 45, N
        134   -1.387E+02                                 F               0         Blade 1 Y force, node 45, N
        135   -1.053E+03                                 F               0         Blade 1 Z force, node 45, N
        136    5.101E+03                                 F               0         Blade 1 X force, node 46, N
        137   -1.307E+02                                 F               0         Blade 1 Y force, node 46, N
        138   -1.073E+03                                 F               0         Blade 1 Z force, node 46, N
        139    6.120E+03                                 F               0         Blade 1 X force, node 47, N
        140   -1.424E+02                                 F               0         Blade 1 Y force, node 47, N
        141   -1.278E+03                                 F               0         Blade 1 Z force, node 47, N
        142    4.396E+03                                 F               0         Blade 1 X force, node 48, N
        143   -9.247E+01                                 F               0         Blade 1 Y force, node 48, N
        144   -9.114E+02                                 F               0         Blade 1 Z force, node 48, N
        145    5.414E+03                                 F               0         Blade 1 X force, node 49, N
        146   -1.040E+02                                 F               0         Blade 1 Y force, node 49, N
        147   -1.116E+03                                 F               0         Blade 1 Z force, node 49, N
        148    4.640E+03                                 F               0         Blade 1 X force, node 50, N
        149   -8.089E+01                                 F               0         Blade 1 Y force, node 50, N
        150   -9.507E+02                                 F               0         Blade 1 Z force, node 50, N
        151    6.501E+03                                 F               0         Blade 1 X force, node 51, N
        152   -1.003E+02                                 F               0         Blade 1 Y force, node 51, N
        153   -1.323E+03                                 F               0         Blade 1 Z force, node 51, N
        154    5.729E+03                                 F               0         Blade 1 X force, node 52, N
        155   -7.718E+01                                 F               0         Blade 1 Y force, node 52, N
        156   -1.158E+03                                 F               0         Blade 1 Z force, node 52, N
        157    5.834E+03                                 F               0         Blade 1 X force, node 53, N
        158   -6.824E+01                                 F               0         Blade 1 Y force, node 53, N
        159   -1.173E+03                                 F               0         Blade 1 Z force, node 53, N
        160    6.005E+03                                 F               0         Blade 1 X force, node 54, N
        161   -5.989E+01                                 F               0         Blade 1 Y force, node 54, N
        162   -1.200E+03                                 F               0         Blade 1 Z force, node 54, N
        163    5.979E+03                                 F               0         Blade 1 X force, node 55, N
        164   -4.962E+01                                 F               0         Blade 1 Y force, node 55, N
        165   -1.188E+03                                 F               0         Blade 1 Z force, node 55, N
        166    6.149E+03                                 F               0         Blade 1 X force, node 56, N
        167   -4.116E+01                                 F               0         Blade 1 Y force, node 56, N
        168   -1.215E+03                                 F               0         Blade 1 Z force, node 56, N
        169    7.386E+03                                 F               0         Blade 1 X force, node 57, N
        170   -3.711E+01                                 F               0         Blade 1 Y force, node 57, N
        171   -1.452E+03                                 F               0         Blade 1 Z force, node 57, N
        172    5.226E+03                                 F               0         Blade 1 X force, node 58, N
        173   -1.794E+01                                 F               0         Blade 1 Y force, node 58, N
        174   -1.021E+03                                 F               0         Blade 1 Z force, node 58, N
        175    6.463E+03                                 F               0         Blade 1 X force, node 59, N
        176   -1.382E+01                                 F               0         Blade 1 Y force, node 59, N
        177   -1.258E+03                                 F               0         Blade 1 Z force, node 59, N
        178    5.562E+03                                 F               0         Blade 1 X force, node 60, N
        179   -4.746E+00                                 F               0         Blade 1 Y force, node 60, N
        180   -1.077E+03                                 F               0         Blade 1 Z force, node 60, N
        181    7.678E+03                                 F               0         Blade 1 X force, node 61, N
        182    4.618E+00                                 F               0         Blade 1 Y force, node 61, N
        183   -1.480E+03                                 F               0         Blade 1 Z force, node 61, N
        184    6.774E+03                                 F               0         Blade 1 X force, node 62, N