
Linearized model: Predictions were generated on 06-Feb-2024 at 10:15:48 using OpenFAST, compiled as a 64-bit application using single precision at commit v3.5.1
 linked with  NWTC Subroutine Library; ElastoDyn; InflowWind; AeroDyn; ServoDyn; HydroDyn; MAP++ (<1.20.10>, <Oct-20-2023>)

Description from the FAST input file: CCT-9 Campign 4 model. Input files to be run with OpenFAST 3.5.0. GitHub branch from Lu Wang (https://github.com/luwang00/openfast/tree/dev) compiled on March 7, 2023.

Simulation information:
   Simulation time:                  1003.5000 s
   Rotor Speed:                         1.0400 rad/s
   Azimuth:                             4.6876 rad
   Wind Speed:                         12.0000 m/s
   Number of continuous states:         0
   Number of discrete states:           0
   Number of constraint states:         0
   Number of inputs:                 1746
   Number of outputs:                   4
   Jacobians included in this file?    No

Order of inputs:
     Column   Operating Point                     Rotating Frame? Derivative Order Description
   ---------- ---------------                     --------------- ---------------- -----------
          1    1.514E+01                                 F               0         Tower X translation displacement, node 1, m
          2   -1.115E+00                                 F               0         Tower Y translation displacement, node 1, m
          3   -5.053E-01                                 F               0         Tower Z translation displacement, node 1, m
          4    1.707E+01                                 F               0         Tower X translation displacement, node 2, m
          5   -1.721E+00                                 F               0         Tower Y translation displacement, node 2, m
          6   -6.722E-01                                 F               0         Tower Z translation displacement, node 2, m
          7    1.904E+01                                 F               0         Tower X translation displacement, node 3, m
          8   -2.333E+00                                 F               0         Tower Y translation displacement, node 3, m
          9   -8.449E-01                                 F               0         Tower Z translation displacement, node 3, m
         10    2.103E+01                                 F               0         Tower X translation displacement, node 4, m
         11   -2.950E+00                                 F               0         Tower Y translation displacement, node 4, m
         12   -1.022E+00                                 F               0         Tower Z translation displacement, node 4, m
         13    2.304E+01                                 F               0         Tower X translation displacement, node 5, m
         14   -3.570E+00                                 F               0         Tower Y translation displacement, node 5, m
         15   -1.203E+00                                 F               0         Tower Z translation displacement, node 5, m
         16    2.508E+01                                 F               0         Tower X translation displacement, node 6, m
         17   -4.195E+00                                 F               0         Tower Y translation displacement, node 6, m
         18   -1.387E+00                                 F               0         Tower Z translation displacement, node 6, m
         19    2.712E+01                                 F               0         Tower X translation displacement, node 7, m
         20   -4.821E+00                                 F               0         Tower Y translation displacement, node 7, m
         21   -1.574E+00                                 F               0         Tower Z translation displacement, node 7, m
         22    2.918E+01                                 F               0         Tower X translation displacement, node 8, m
         23   -5.451E+00                                 F               0         Tower Y translation displacement, node 8, m
         24   -1.763E+00                                 F               0         Tower Z translation displacement, node 8, m
         25    3.124E+01                                 F               0         Tower X translation displacement, node 9, m
         26   -6.082E+00                                 F               0         Tower Y translation displacement, node 9, m
         27   -1.953E+00                                 F               0         Tower Z translation displacement, node 9, m
         28    3.331E+01                                 F               0         Tower X translation displacement, node 10, m
         29   -6.714E+00                                 F               0         Tower Y translation displacement, node 10, m
         30   -2.144E+00                                 F               0         Tower Z translation displacement, node 10, m
         31    3.539E+01                                 F               0         Tower X translation displacement, node 11, m
         32   -7.347E+00                                 F               0         Tower Y translation displacement, node 11, m
         33   -2.336E+00                                 F               0         Tower Z translation displacement, node 11, m
         34    9.879E-01,  1.359E-02, -1.547E-01         F               0         Tower X orientation angle, node 1, rad
         35   -5.847E-03,  9.987E-01,  5.037E-02         F               0         Tower Y orientation angle, node 1, rad
         36    1.552E-01, -4.886E-02,  9.867E-01         F               0         Tower Z orientation angle, node 1, rad
         37    9.875E-01,  1.371E-02, -1.573E-01         F               0         Tower X orientation angle, node 2, rad
         38   -5.770E-03,  9.987E-01,  5.085E-02         F               0         Tower Y orientation angle, node 2, rad
         39    1.578E-01, -4.931E-02,  9.862E-01         F               0         Tower Z orientation angle, node 2, rad
         40    9.871E-01,  1.383E-02, -1.596E-01         F               0         Tower X orientation angle, node 3, rad
         41   -5.700E-03,  9.987E-01,  5.129E-02         F               0         Tower Y orientation angle, node 3, rad
         42    1.601E-01, -4.971E-02,  9.858E-01         F               0         Tower Z orientation angle, node 3, rad
         43    9.868E-01,  1.393E-02, -1.616E-01         F               0         Tower X orientation angle, node 4, rad
         44   -5.638E-03,  9.986E-01,  5.166E-02         F               0         Tower Y orientation angle, node 4, rad
         45    1.621E-01, -5.007E-02,  9.855E-01         F               0         Tower Z orientation angle, node 4, rad
         46    9.865E-01,  1.401E-02, -1.632E-01         F               0         Tower X orientation angle, node 5, rad
         47   -5.585E-03,  9.986E-01,  5.199E-02         F               0         Tower Y orientation angle, node 5, rad
         48    1.637E-01, -5.038E-02,  9.852E-01         F               0         Tower Z orientation angle, node 5, rad
         49    9.863E-01,  1.408E-02, -1.645E-01         F               0         Tower X orientation angle, node 6, rad
         50   -5.540E-03,  9.986E-01,  5.226E-02         F               0         Tower Y orientation angle, node 6, rad
         51    1.650E-01, -5.063E-02,  9.850E-01         F               0         Tower Z orientation angle, node 6, rad
         52    9.861E-01,  1.413E-02, -1.656E-01         F               0         Tower X orientation angle, node 7, rad
         53   -5.503E-03,  9.986E-01,  5.248E-02         F               0         Tower Y orientation angle, node 7, rad
         54    1.661E-01, -5.084E-02,  9.848E-01         F               0         Tower Z orientation angle, node 7, rad
         55    9.860E-01,  1.417E-02, -1.663E-01         F               0         Tower X orientation angle, node 8, rad
         56   -5.475E-03,  9.986E-01,  5.265E-02         F               0         Tower Y orientation angle, node 8, rad
         57    1.668E-01, -5.100E-02,  9.847E-01         F               0         Tower Z orientation angle, node 8, rad
         58    9.859E-01,  1.420E-02, -1.669E-01         F               0         Tower X orientation angle, node 9, rad
         59   -5.454E-03,  9.986E-01,  5.277E-02         F               0         Tower Y orientation angle, node 9, rad
         60    1.674E-01, -5.112E-02,  9.846E-01         F               0         Tower Z orientation angle, node 9, rad
         61    9.858E-01,  1.422E-02, -1.672E-01         F               0         Tower X orientation angle, node 10, rad
         62   -5.440E-03,  9.986E-01,  5.285E-02         F               0         Tower Y orientation angle, node 10, rad
         63    1.677E-01, -5.119E-02,  9.845E-01         F               0         Tower Z orientation angle, node 10, rad
         64    9.858E-01,  1.423E-02, -1.674E-01         F               0         Tower X orientation angle, node 11, rad
         65   -5.432E-03,  9.986E-01,  5.290E-02         F               0         Tower Y orientation angle, node 11, rad
         66    1.679E-01, -5.124E-02,  9.845E-01         F               0         Tower Z orientation angle, node 11, rad
         67   -2.801E-03                                 F               0         Tower X translation velocity, node 1, m/s
         68   -2.945E-02                                 F               0         Tower Y translation velocity, node 1, m/s
         69   -2.764E-04                                 F               0         Tower Z translation velocity, node 1, m/s
         70   -3.900E-03                                 F               0         Tower X translation velocity, node 2, m/s
         71   -4.900E-02                                 F               0         Tower Y translation velocity, node 2, m/s
         72   -1.075E-03                                 F               0         Tower Z translation velocity, node 2, m/s
         73   -5.005E-03                                 F               0         Tower X translation velocity, node 3, m/s
         74   -6.883E-02                                 F               0         Tower Y translation velocity, node 3, m/s
         75   -1.892E-03                                 F               0         Tower Z translation velocity, node 3, m/s
         76   -6.115E-03                                 F               0         Tower X translation velocity, node 4, m/s
         77   -8.887E-02                                 F               0         Tower Y translation velocity, node 4, m/s
         78   -2.725E-03                                 F               0         Tower Z translation velocity, node 4, m/s
         79   -7.231E-03                                 F               0         Tower X translation velocity, node 5, m/s
         80   -1.091E-01                                 F               0         Tower Y translation velocity, node 5, m/s
         81   -3.572E-03                                 F               0         Tower Z translation velocity, node 5, m/s
         82   -8.350E-03                                 F               0         Tower X translation velocity, node 6, m/s
         83   -1.295E-01                                 F               0         Tower Y translation velocity, node 6, m/s
         84   -4.429E-03                                 F               0         Tower Z translation velocity, node 6, m/s
         85   -9.474E-03                                 F               0         Tower X translation velocity, node 7, m/s
         86   -1.499E-01                                 F               0         Tower Y translation velocity, node 7, m/s
         87   -5.295E-03                                 F               0         Tower Z translation velocity, node 7, m/s
         88   -1.060E-02                                 F               0         Tower X translation velocity, node 8, m/s
         89   -1.705E-01                                 F               0         Tower Y translation velocity, node 8, m/s
         90   -6.169E-03                                 F               0         Tower Z translation velocity, node 8, m/s
         91   -1.173E-02                                 F               0         Tower X translation velocity, node 9, m/s
         92   -1.912E-01                                 F               0         Tower Y translation velocity, node 9, m/s
         93   -7.048E-03                                 F               0         Tower Z translation velocity, node 9, m/s
         94   -1.287E-02                                 F               0         Tower X translation velocity, node 10, m/s
         95   -2.119E-01                                 F               0         Tower Y translation velocity, node 10, m/s
         96   -7.931E-03                                 F               0         Tower Z translation velocity, node 10, m/s
         97   -1.400E-02                                 F               0         Tower X translation velocity, node 11, m/s
         98   -2.326E-01                                 F               0         Tower Y translation velocity, node 11, m/s
         99   -8.817E-03                                 F               0         Tower Z translation velocity, node 11, m/s
        100    3.686E+01                                 F               0         Hub X translation displacement, node 1, m
        101   -7.902E+00                                 F               0         Hub Y translation displacement, node 1, m
        102   -6.498E-01                                 F               0         Hub Z translation displacement, node 1, m
        103    9.628E-01,  1.951E-02, -2.694E-01         F               0         Hub X orientation angle, node 1, rad
        104   -2.698E-01,  2.475E-02, -9.626E-01         F               0         Hub Y orientation angle, node 1, rad
        105   -1.211E-02,  9.995E-01,  2.909E-02         F               0         Hub Z orientation angle, node 1, rad
        106    1.003E+00                                 F               0         Hub X rotation velocity, node 1, rad/s
        107    2.021E-02                                 F               0         Hub Y rotation velocity, node 1, rad/s
        108   -2.804E-01                                 F               0         Hub Z rotation velocity, node 1, rad/s
        109    9.704E-01,  1.876E-02, -2.407E-01         F               0         Blade root 1 X orientation angle, node 1, rad
        110   -2.411E-01,  2.532E-02, -9.702E-01         F               0         Blade root 1 Y orientation angle, node 1, rad
        111   -1.211E-02,  9.995E-01,  2.909E-02         F               0         Blade root 1 Z orientation angle, node 1, rad
        112    9.587E-01, -5.813E-03, -2.843E-01         F               0         Blade root 2 X orientation angle, node 1, rad
        113    1.529E-01,  8.534E-01,  4.983E-01         F               0         Blade root 2 Y orientation angle, node 1, rad
        114    2.397E-01, -5.212E-01,  8.191E-01         F               0         Blade root 2 Z orientation angle, node 1, rad
        115    9.581E-01,  4.555E-02, -2.828E-01         F               0         Blade root 3 X orientation angle, node 1, rad
        116    1.739E-01, -8.770E-01,  4.479E-01         F               0         Blade root 3 Y orientation angle, node 1, rad
        117   -2.276E-01, -4.783E-01, -8.482E-01         F               0         Blade root 3 Z orientation angle, node 1, rad
        118    3.621E+01                                 F               0         Blade 1 X translation displacement, node 1, m
        119   -2.365E+00                                 F               0         Blade 1 Y translation displacement, node 1, m
        120   -5.998E+00                                 F               0         Blade 1 Z translation displacement, node 1, m
        121    3.606E+01                                 F               0         Blade 1 X translation displacement, node 2, m
        122   -1.031E+00                                 F               0         Blade 1 Y translation displacement, node 2, m
        123   -7.287E+00                                 F               0         Blade 1 Z translation displacement, node 2, m
        124    3.394E+01                                 F               0         Blade 1 X translation displacement, node 3, m
        125    1.711E+01                                 F               0         Blade 1 Y translation displacement, node 3, m
        126   -2.481E+01                                 F               0         Blade 1 Z translation displacement, node 3, m
        127    3.349E+01                                 F               0         Blade 1 X translation displacement, node 4, m
        128    2.098E+01                                 F               0         Blade 1 Y translation displacement, node 4, m
        129   -2.855E+01                                 F               0         Blade 1 Z translation displacement, node 4, m
        130    3.304E+01                                 F               0         Blade 1 X translation displacement, node 5, m
        131    2.484E+01                                 F               0         Blade 1 Y translation displacement, node 5, m
        132   -3.228E+01                                 F               0         Blade 1 Z translation displacement, node 5, m
        133    3.259E+01                                 F               0         Blade 1 X translation displacement, node 6, m
        134    2.871E+01                                 F               0         Blade 1 Y translation displacement, node 6, m
        135   -3.601E+01                                 F               0         Blade 1 Z translation displacement, node 6, m
        136    3.214E+01                                 F               0         Blade 1 X translation displacement, node 7, m
        137    3.258E+01                                 F               0         Blade 1 Y translation displacement, node 7, m
        138   -3.975E+01                                 F               0         Blade 1 Z translation displacement, node 7, m
        139    3.168E+01                                 F               0         Blade 1 X translation displacement, node 8, m
        140    3.644E+01                                 F               0         Blade 1 Y translation displacement, node 8, m
        141   -4.348E+01                                 F               0         Blade 1 Z translation displacement, node 8, m
        142    3.123E+01                                 F               0         Blade 1 X translation displacement, node 9, m
        143    4.031E+01                                 F               0         Blade 1 Y translation displacement, node 9, m
        144   -4.722E+01                                 F               0         Blade 1 Z translation displacement, node 9, m
        145    3.078E+01                                 F               0         Blade 1 X translation displacement, node 10, m
        146    4.417E+01                                 F               0         Blade 1 Y translation displacement, node 10, m
        147   -5.095E+01                                 F               0         Blade 1 Z translation displacement, node 10, m
        148    3.033E+01                                 F               0         Blade 1 X translation displacement, node 11, m
        149    4.804E+01                                 F               0         Blade 1 Y translation displacement, node 11, m
        150   -5.468E+01                                 F               0         Blade 1 Z translation displacement, node 11, m
        151    2.988E+01                                 F               0         Blade 1 X translation displacement, node 12, m
        152    5.190E+01                                 F               0         Blade 1 Y translation displacement, node 12, m
        153   -5.842E+01                                 F               0         Blade 1 Z translation displacement, node 12, m
        154    2.943E+01                                 F               0         Blade 1 X translation displacement, node 13, m
        155    5.577E+01                                 F               0         Blade 1 Y translation displacement, node 13, m
        156   -6.215E+01                                 F               0         Blade 1 Z translation displacement, node 13, m
        157    2.898E+01                                 F               0         Blade 1 X translation displacement, node 14, m
        158    5.964E+01                                 F               0         Blade 1 Y translation displacement, node 14, m
        159   -6.589E+01                                 F               0         Blade 1 Z translation displacement, node 14, m
        160    2.853E+01                                 F               0         Blade 1 X translation displacement, node 15, m
        161    6.350E+01                                 F               0         Blade 1 Y translation displacement, node 15, m
        162   -6.962E+01                                 F               0         Blade 1 Z translation displacement, node 15, m
        163    2.808E+01                                 F               0         Blade 1 X translation displacement, node 16, m
        164    6.737E+01                                 F               0         Blade 1 Y translation displacement, node 16, m
        165   -7.335E+01                                 F               0         Blade 1 Z translation displacement, node 16, m
        166    2.762E+01                                 F               0         Blade 1 X translation displacement, node 17, m
        167    7.123E+01                                 F               0         Blade 1 Y translation displacement, node 17, m
        168   -7.709E+01                                 F               0         Blade 1 Z translation displacement, node 17, m
        169    2.717E+01                                 F               0         Blade 1 X translation displacement, node 18, m
        170    7.510E+01                                 F               0         Blade 1 Y translation displacement, node 18, m
        171   -8.082E+01                                 F               0         Blade 1 Z translation displacement, node 18, m
        172    2.672E+01                                 F               0         Blade 1 X translation displacement, node 19, m
        173    7.897E+01                                 F               0         Blade 1 Y translation displacement, node 19, m
        174   -8.456E+01                                 F               0         Blade 1 Z translation displacement, node 19, m
        175    2.627E+01                                 F               0         Blade 1 X translation displacement, node 20, m
        176    8.283E+01                                 F               0         Blade 1 Y translation displacement, node 20, m
        177   -8.829E+01                                 F               0         Blade 1 Z translation displacement, node 20, m
        178    2.582E+01                                 F               0         Blade 1 X translation displacement, node 21, m
        179    8.670E+01                                 F               0         Blade 1 Y translation displacement, node 21, m
        180   -9.202E+01                                 F               0         Blade 1 Z translation displacement, node 21, m
        181    2.537E+01                                 F               0         Blade 1 X translation displacement, node 22, m
        182    9.056E+01                                 F               0         Blade 1 Y translation displacement, node 22, m
        183   -9.576E+01                                 F               0         Blade 1 Z translation displacement, node 22, m
        184    2.492E+01                                 F               0         Blade 1 X translation displacement, node 23, m
        185    9.443E+01                                 F               0         Blade 1 Y translation displacement, node 23, m
        186   -9.949E+01                                 F               0         Blade 1 Z translation displacement, node 23, m
        187    2.447E+01                                 F               0         Blade 1 X translation displacement, node 24, m
        188    9.829E+01                                 F               0         Blade 1 Y translation displacement, node 24, m
        189   -1.032E+02                                 F               0         Blade 1 Z translation displacement, node 24, m
        190    2.402E+01                                 F               0         Blade 1 X translation displacement, node 25, m
        191    1.022E+02                                 F               0         Blade 1 Y translation displacement, node 25, m
        192   -1.070E+02                                 F               0         Blade 1 Z translation displacement, node 25, m
        193    2.356E+01                                 F               0         Blade 1 X translation displacement, node 26, m
        194    1.060E+02                                 F               0         Blade 1 Y translation displacement, node 26, m
        195   -1.107E+02                                 F               0         Blade 1 Z translation displacement, node 26, m
        196    2.311E+01                                 F               0         Blade 1 X translation displacement, node 27, m
        197    1.099E+02                                 F               0         Blade 1 Y translation displacement, node 27, m
        198   -1.144E+02                                 F               0         Blade 1 Z translation displacement, node 27, m
        199    2.273E+01                                 F               0         Blade 1 X translation displacement, node 28, m
        200    1.132E+02                                 F               0         Blade 1 Y translation displacement, node 28, m
        201   -1.176E+02                                 F               0         Blade 1 Z translation displacement, node 28, m
        202    9.736E-01,  5.155E-03,  2.282E-01         F               0         Blade 1 X orientation angle, node 1, rad
        203    2.279E-01,  3.109E-02, -9.732E-01         F               0         Blade 1 Y orientation angle, node 1, rad
        204   -1.211E-02,  9.995E-01,  2.909E-02         F               0         Blade 1 Z orientation angle, node 1, rad
        205    9.736E-01,  5.155E-03,  2.282E-01         F               0         Blade 1 X orientation angle, node 2, rad
        206    2.279E-01,  3.109E-02, -9.732E-01         F               0         Blade 1 Y orientation angle, node 2, rad
        207   -1.211E-02,  9.995E-01,  2.909E-02         F               0         Blade 1 Z orientation angle, node 2, rad
        208    9.999E-01,  1.238E-02, -8.971E-03         F               0         Blade 1 X orientation angle, node 3, rad
        209   -9.327E-03,  2.898E-02, -9.995E-01         F               0         Blade 1 Y orientation angle, node 3, rad
        210   -1.211E-02,  9.995E-01,  2.909E-02         F               0         Blade 1 Z orientation angle, node 3, rad
        211    9.986E-01,  1.359E-02, -5.117E-02         F               0         Blade 1 X orientation angle, node 4, rad
        212   -5.154E-02,  2.843E-02, -9.983E-01         F               0         Blade 1 Y orientation angle, node 4, rad
        213   -1.211E-02,  9.995E-01,  2.909E-02         F               0         Blade 1 Z orientation angle, node 4, rad
        214    9.963E-01,  1.452E-02, -8.424E-02         F               0         Blade 1 X orientation angle, node 5, rad
        215   -8.462E-02,  2.797E-02, -9.960E-01         F               0         Blade 1 Y orientation angle, node 5, rad
        216   -1.211E-02,  9.995E-01,  2.909E-02         F               0         Blade 1 Z orientation angle, node 5, rad
        217    9.937E-01,  1.526E-02, -1.106E-01         F               0         Blade 1 X orientation angle, node 6, rad
        218   -1.110E-01,  2.757E-02, -9.934E-01         F               0         Blade 1 Y orientation angle, node 6, rad
        219   -1.211E-02,  9.995E-01,  2.909E-02         F               0         Blade 1 Z orientation angle, node 6, rad
        220    9.911E-01,  1.586E-02, -1.323E-01         F               0         Blade 1 X orientation angle, node 7, rad
        221   -1.327E-01,  2.723E-02, -9.908E-01         F               0         Blade 1 Y orientation angle, node 7, rad
        222   -1.211E-02,  9.995E-01,  2.909E-02         F               0         Blade 1 Z orientation angle, node 7, rad
        223    9.885E-01,  1.635E-02, -1.502E-01         F               0         Blade 1 X orientation angle, node 8, rad
        224   -1.506E-01,  2.694E-02, -9.882E-01         F               0         Blade 1 Y orientation angle, node 8, rad
        225   -1.211E-02,  9.995E-01,  2.909E-02         F               0         Blade 1 Z orientation angle, node 8, rad
        226    9.861E-01,  1.676E-02, -1.654E-01         F               0         Blade 1 X orientation angle, node 9, rad
        227   -1.658E-01,  2.669E-02, -9.858E-01         F               0         Blade 1 Y orientation angle, node 9, rad