
Linearized model: Predictions were generated on 13-Feb-2024 at 12:12:09 using OpenFAST, compiled as a 64-bit application using single precision at commit v3.5.1
 linked with  NWTC Subroutine Library; ElastoDyn; InflowWind; AeroDyn; ServoDyn; HydroDyn; MAP++ (<1.20.10>, <Oct-20-2023>)

Description from the FAST input file: CCT-9 Campign 4 model. Input files to be run with OpenFAST 3.5.0. GitHub branch from Lu Wang (https://github.com/luwang00/openfast/tree/dev) compiled on March 7, 2023.

Simulation information:
   Simulation time:                   777.5000 s
   Rotor Speed:                         0.7917 rad/s
   Azimuth:                             5.5945 rad
   Wind Speed:                         24.0000 m/s
   Number of continuous states:        22
   Number of discrete states:           0
   Number of constraint states:         0
   Number of inputs:                 1890
   Number of outputs:                  25
   Jacobians included in this file?    No

Order of continuous states:
   Row/Column Operating Point                                                   Rotating Frame? Derivative Order Description
   ---------- ---------------                                                   --------------- ---------------- -----------
          1     6.82756376266E+000                                                     F               2         Platform horizontal surge translation DOF (internal DOF index = DOF_Sg), m
          2    -8.21999728680E-001                                                     F               2         Platform horizontal sway translation DOF (internal DOF index = DOF_Sw), m
          3    -1.19507998228E-001                                                     F               2         Platform vertical heave translation DOF (internal DOF index = DOF_Hv), m
          4     5.43651320040E-002                                                     F               2         Platform roll tilt rotation DOF (internal DOF index = DOF_R), rad
          5     9.52764749527E-002                                                     F               2         Platform pitch tilt rotation DOF (internal DOF index = DOF_P), rad
          6    -9.26188938320E-003                                                     F               2         Platform yaw rotation DOF (internal DOF index = DOF_Y), rad
          7     5.24928212166E-001                                                     F               2         1st tower fore-aft bending mode DOF (internal DOF index = DOF_TFA1), m
          8     2.62022644281E-001                                                     F               2         1st tower side-to-side bending mode DOF (internal DOF index = DOF_TSS1), m
          9     1.53100362513E-003                                                     F               2         2nd tower fore-aft bending mode DOF (internal DOF index = DOF_TFA2), m
         10    -2.92569980957E-004                                                     F               2         2nd tower side-to-side bending mode DOF (internal DOF index = DOF_TSS2), m
         11     4.02371692657E+000                                                     F               2         Variable speed generator DOF (internal DOF index = DOF_GeAz), rad
         12     1.91865267698E-003                                                     F               2         First time derivative of Platform horizontal surge translation DOF (internal DOF index = DOF_Sg), m/s
         13     3.86551930569E-003                                                     F               2         First time derivative of Platform horizontal sway translation DOF (internal DOF index = DOF_Sw), m/s
         14    -5.05577400327E-003                                                     F               2         First time derivative of Platform vertical heave translation DOF (internal DOF index = DOF_Hv), m/s
         15    -1.53396467795E-004                                                     F               2         First time derivative of Platform roll tilt rotation DOF (internal DOF index = DOF_R), rad/s
         16     5.19855711900E-006                                                     F               2         First time derivative of Platform pitch tilt rotation DOF (internal DOF index = DOF_P), rad/s
         17     2.06980857911E-005                                                     F               2         First time derivative of Platform yaw rotation DOF (internal DOF index = DOF_Y), rad/s
         18    -4.46078786626E-003                                                     F               2         First time derivative of 1st tower fore-aft bending mode DOF (internal DOF index = DOF_TFA1), m/s
         19     2.14934442192E-002                                                     F               2         First time derivative of 1st tower side-to-side bending mode DOF (internal DOF index = DOF_TSS1), m/s
         20    -2.17268490815E-004                                                     F               2         First time derivative of 2nd tower fore-aft bending mode DOF (internal DOF index = DOF_TFA2), m/s
         21     1.05081271613E-005                                                     F               2         First time derivative of 2nd tower side-to-side bending mode DOF (internal DOF index = DOF_TSS2), m/s
         22     7.91678905487E-001                                                     F               2         First time derivative of Variable speed generator DOF (internal DOF index = DOF_GeAz), rad/s

Order of continuous state derivatives:
   Row/Column Operating Point                                                   Rotating Frame? Derivative Order Description
   ---------- ---------------                                                   --------------- ---------------- -----------
          1     1.91865267698E-003                                                     F               2         First time derivative of Platform horizontal surge translation DOF (internal DOF index = DOF_Sg), m/s
          2     3.86551930569E-003                                                     F               2         First time derivative of Platform horizontal sway translation DOF (internal DOF index = DOF_Sw), m/s
          3    -5.05577400327E-003                                                     F               2         First time derivative of Platform vertical heave translation DOF (internal DOF index = DOF_Hv), m/s
          4    -1.53396467795E-004                                                     F               2         First time derivative of Platform roll tilt rotation DOF (internal DOF index = DOF_R), rad/s
          5     5.19855711900E-006                                                     F               2         First time derivative of Platform pitch tilt rotation DOF (internal DOF index = DOF_P), rad/s
          6     2.06980857911E-005                                                     F               2         First time derivative of Platform yaw rotation DOF (internal DOF index = DOF_Y), rad/s
          7    -4.46078786626E-003                                                     F               2         First time derivative of 1st tower fore-aft bending mode DOF (internal DOF index = DOF_TFA1), m/s
          8     2.14934442192E-002                                                     F               2         First time derivative of 1st tower side-to-side bending mode DOF (internal DOF index = DOF_TSS1), m/s
          9    -2.17268490815E-004                                                     F               2         First time derivative of 2nd tower fore-aft bending mode DOF (internal DOF index = DOF_TFA2), m/s
         10     1.05081271613E-005                                                     F               2         First time derivative of 2nd tower side-to-side bending mode DOF (internal DOF index = DOF_TSS2), m/s
         11     7.91678905487E-001                                                     F               2         First time derivative of Variable speed generator DOF (internal DOF index = DOF_GeAz), rad/s
         12    -8.72491020709E-003                                                     F               2         First time derivative of First time derivative of Platform horizontal surge translation DOF (internal DOF index = DOF_Sg), m/s/s
         13     2.87968246266E-003                                                     F               2         First time derivative of First time derivative of Platform horizontal sway translation DOF (internal DOF index = DOF_Sw), m/s/s
         14     4.64724056656E-004                                                     F               2         First time derivative of First time derivative of Platform vertical heave translation DOF (internal DOF index = DOF_Hv), m/s/s
         15    -1.67998441611E-004                                                     F               2         First time derivative of First time derivative of Platform roll tilt rotation DOF (internal DOF index = DOF_R), rad/s/s
         16    -5.55859471206E-004                                                     F               2         First time derivative of First time derivative of Platform pitch tilt rotation DOF (internal DOF index = DOF_P), rad/s/s
         17    -3.74212249881E-005                                                     F               2         First time derivative of First time derivative of Platform yaw rotation DOF (internal DOF index = DOF_Y), rad/s/s
         18     1.26962870359E-001                                                     F               2         First time derivative of First time derivative of 1st tower fore-aft bending mode DOF (internal DOF index = DOF_TFA1), m/s/s
         19     2.86462940276E-002                                                     F               2         First time derivative of First time derivative of 1st tower side-to-side bending mode DOF (internal DOF index = DOF_TSS1), m/s/s
         20    -1.43382872920E-003                                                     F               2         First time derivative of First time derivative of 2nd tower fore-aft bending mode DOF (internal DOF index = DOF_TFA2), m/s/s
         21     3.25485627400E-004                                                     F               2         First time derivative of First time derivative of 2nd tower side-to-side bending mode DOF (internal DOF index = DOF_TSS2), m/s/s
         22    -8.45879607368E-004                                                     F               2         First time derivative of First time derivative of Variable speed generator DOF (internal DOF index = DOF_GeAz), rad/s/s

Order of inputs:
     Column   Operating Point                                                   Rotating Frame? Derivative Order Description
   ---------- ---------------                                                   --------------- ---------------- -----------
          1     3.54917236328E+002                                                     F               0         Blade 1 X force, node 1, N
          2     3.47750473022E+001                                                     F               0         Blade 1 Y force, node 1, N
          3    -1.00017616272E+002                                                     F               0         Blade 1 Z force, node 1, N
          4     1.37432116699E+003                                                     F               0         Blade 1 X force, node 2, N
          5     4.78280181885E+001                                                     F               0         Blade 1 Y force, node 2, N
          6    -3.22555755615E+002                                                     F               0         Blade 1 Z force, node 2, N
          7     1.49396691895E+003                                                     F               0         Blade 1 X force, node 3, N
          8    -1.23665817261E+002                                                     F               0         Blade 1 Y force, node 3, N
          9    -2.19675003052E+002                                                     F               0         Blade 1 Z force, node 3, N
         10     1.75599304199E+003                                                     F               0         Blade 1 X force, node 4, N
         11    -2.92159118652E+002                                                     F               0         Blade 1 Y force, node 4, N
         12    -1.48754013062E+002                                                     F               0         Blade 1 Z force, node 4, N
         13     2.01803356934E+003                                                     F               0         Blade 1 X force, node 5, N
         14    -4.60656280518E+002                                                     F               0         Blade 1 Y force, node 5, N
         15    -7.78332290649E+001                                                     F               0         Blade 1 Z force, node 5, N
         16     2.28006250000E+003                                                     F               0         Blade 1 X force, node 6, N
         17    -6.29151306152E+002                                                     F               0         Blade 1 Y force, node 6, N
         18    -6.91146278381E+000                                                     F               0         Blade 1 Z force, node 6, N
         19     2.54207421875E+003                                                     F               0         Blade 1 X force, node 7, N
         20    -7.97641174316E+002                                                     F               0         Blade 1 Y force, node 7, N
         21     6.40099029541E+001                                                     F               0         Blade 1 Z force, node 7, N
         22     2.80410009766E+003                                                     F               0         Blade 1 X force, node 8, N
         23    -9.66134582520E+002                                                     F               0         Blade 1 Y force, node 8, N
         24     1.34930923462E+002                                                     F               0         Blade 1 Z force, node 8, N
         25     3.06612622070E+003                                                     F               0         Blade 1 X force, node 9, N
         26    -1.13462792969E+003                                                     F               0         Blade 1 Y force, node 9, N
         27     2.05851928711E+002                                                     F               0         Blade 1 Z force, node 9, N
         28     3.32815209961E+003                                                     F               0         Blade 1 X force, node 10, N
         29    -1.30312109375E+003                                                     F               0         Blade 1 Y force, node 10, N
         30     2.76772888184E+002                                                     F               0         Blade 1 Z force, node 10, N
         31     3.59017822266E+003                                                     F               0         Blade 1 X force, node 11, N
         32    -1.47161474609E+003                                                     F               0         Blade 1 Y force, node 11, N
         33     3.47693939209E+002                                                     F               0         Blade 1 Z force, node 11, N
         34     3.85223095703E+003                                                     F               0         Blade 1 X force, node 12, N
         35    -1.64011950684E+003                                                     F               0         Blade 1 Y force, node 12, N
         36     4.18618011475E+002                                                     F               0         Blade 1 Z force, node 12, N
         37     4.11425927734E+003                                                     F               0         Blade 1 X force, node 13, N
         38    -1.80861474609E+003                                                     F               0         Blade 1 Y force, node 13, N
         39     4.89539794922E+002                                                     F               0         Blade 1 Z force, node 13, N
         40     4.37625927734E+003                                                     F               0         Blade 1 X force, node 14, N
         41    -1.97709680176E+003                                                     F               0         Blade 1 Y force, node 14, N
         42     5.60457946777E+002                                                     F               0         Blade 1 Z force, node 14, N
         43     4.63831591797E+003                                                     F               0         Blade 1 X force, node 15, N
         44    -2.14560449219E+003                                                     F               0         Blade 1 Y force, node 15, N
         45     6.31383239746E+002                                                     F               0         Blade 1 Z force, node 15, N
         46     4.90031054688E+003                                                     F               0         Blade 1 X force, node 16, N
         47    -2.31408276367E+003                                                     F               0         Blade 1 Y force, node 16, N
         48     7.02299621582E+002                                                     F               0         Blade 1 Z force, node 16, N
         49     5.96921093750E+003                                                     F               0         Blade 1 X force, node 17, N
         50    -2.86724389648E+003                                                     F               0         Blade 1 Y force, node 17, N
         51     8.91570495605E+002                                                     F               0         Blade 1 Z force, node 17, N
         52     4.41485937500E+003                                                     F               0         Blade 1 X force, node 18, N
         53    -2.10931469727E+003                                                     F               0         Blade 1 Y force, node 18, N
         54     6.50975280762E+002                                                     F               0         Blade 1 Z force, node 18, N
         55     5.22795312500E+003                                                     F               0         Blade 1 X force, node 19, N
         56    -2.46412939453E+003                                                     F               0         Blade 1 Y force, node 19, N
         57     7.45769958496E+002                                                     F               0         Blade 1 Z force, node 19, N
         58     4.30796826172E+003                                                     F               0         Blade 1 X force, node 20, N
         59    -2.00304028320E+003                                                     F               0         Blade 1 Y force, node 20, N
         60     5.94056335449E+002                                                     F               0         Blade 1 Z force, node 20, N
         61     6.13662109375E+003                                                     F               0         Blade 1 X force, node 21, N
         62    -2.82045043945E+003                                                     F               0         Blade 1 Y force, node 21, N
         63     8.21735778809E+002                                                     F               0         Blade 1 Z force, node 21, N
         64     5.25989648438E+003                                                     F               0         Blade 1 X force, node 22, N
         65    -2.41163574219E+003                                                     F               0         Blade 1 Y force, node 22, N
         66     6.99964599609E+002                                                     F               0         Blade 1 Z force, node 22, N
         67     5.26470996094E+003                                                     F               0         Blade 1 X force, node 23, N
         68    -2.41034765625E+003                                                     F               0         Blade 1 Y force, node 23, N
         69     6.97999328613E+002                                                     F               0         Blade 1 Z force, node 23, N
         70     5.38498876953E+003                                                     F               0         Blade 1 X force, node 24, N
         71    -2.46645532227E+003                                                     F               0         Blade 1 Y force, node 24, N
         72     7.14721801758E+002                                                     F               0         Blade 1 Z force, node 24, N
         73     5.49931152344E+003                                                     F               0         Blade 1 X force, node 25, N
         74    -2.53754345703E+003                                                     F               0         Blade 1 Y force, node 25, N
         75     7.43855957031E+002                                                     F               0         Blade 1 Z force, node 25, N
         76     5.66557568359E+003                                                     F               0         Blade 1 X force, node 26, N
         77    -2.63666284180E+003                                                     F               0         Blade 1 Y force, node 26, N
         78     7.83046081543E+002                                                     F               0         Blade 1 Z force, node 26, N
         79     6.82310693359E+003                                                     F               0         Blade 1 X force, node 27, N
         80    -3.20320117188E+003                                                     F               0         Blade 1 Y force, node 27, N
         81     9.63788696289E+002                                                     F               0         Blade 1 Z force, node 27, N
         82     5.30507031250E+003                                                     F               0         Blade 1 X force, node 28, N
         83    -2.51594311523E+003                                                     F               0         Blade 1 Y force, node 28, N
         84     7.68301025391E+002                                                     F               0         Blade 1 Z force, node 28, N
         85     6.84727197266E+003                                                     F               0         Blade 1 X force, node 29, N
         86    -3.27396459961E+003                                                     F               0         Blade 1 Y force, node 29, N
         87     1.01150140381E+003                                                     F               0         Blade 1 Z force, node 29, N
         88     6.11411035156E+003                                                     F               0         Blade 1 X force, node 30, N
         89    -2.94379028320E+003                                                     F               0         Blade 1 Y force, node 30, N
         90     9.18391174316E+002                                                     F               0         Blade 1 Z force, node 30, N
         91     9.11519824219E+003                                                     F               0         Blade 1 X force, node 31, N
         92    -4.38731982422E+003                                                     F               0         Blade 1 Y force, node 31, N
         93     1.36812207031E+003                                                     F               0         Blade 1 Z force, node 31, N
         94     7.93137353516E+003                                                     F               0         Blade 1 X force, node 32, N
         95    -3.76088232422E+003                                                     F               0         Blade 1 Y force, node 32, N
         96     1.14821118164E+003                                                     F               0         Blade 1 Z force, node 32, N
         97     8.02743066406E+003                                                     F               0         Blade 1 X force, node 33, N
         98    -3.74899438477E+003                                                     F               0         Blade 1 Y force, node 33, N
         99     1.11929577637E+003                                                     F               0         Blade 1 Z force, node 33, N
        100     8.11727880859E+003                                                     F               0         Blade 1 X force, node 34, N
        101    -3.73265087891E+003                                                     F               0         Blade 1 Y force, node 34, N
        102     1.08835461426E+003                                                     F               0         Blade 1 Z force, node 34, N
        103     8.17405126953E+003                                                     F               0         Blade 1 X force, node 35, N
        104    -3.69464624023E+003                                                     F               0         Blade 1 Y force, node 35, N
        105     1.04816857910E+003                                                     F               0         Blade 1 Z force, node 35, N
        106     8.22038281250E+003                                                     F               0         Blade 1 X force, node 36, N
        107    -3.65024389648E+003                                                     F               0         Blade 1 Y force, node 36, N
        108     1.00539190674E+003                                                     F               0         Blade 1 Z force, node 36, N
        109     9.66198925781E+003                                                     F               0         Blade 1 X force, node 37, N
        110    -4.20911572266E+003                                                     F               0         Blade 1 Y force, node 37, N
        111     1.12111645508E+003                                                     F               0         Blade 1 Z force, node 37, N
        112     6.91007958984E+003                                                     F               0         Blade 1 X force, node 38, N
        113    -2.94989135742E+003                                                     F               0         Blade 1 Y force, node 38, N
        114     7.56776855469E+002                                                     F               0         Blade 1 Z force, node 38, N
        115     8.33736718750E+003                                                     F               0         Blade 1 X force, node 39, N
        116    -3.49595971680E+003                                                     F               0         Blade 1 Y force, node 39, N
        117     8.65944641113E+002                                                     F               0         Blade 1 Z force, node 39, N
        118     7.00068945312E+003                                                     F               0         Blade 1 X force, node 40, N
        119    -2.88253759766E+003                                                     F               0         Blade 1 Y force, node 40, N
        120     6.87645690918E+002                                                     F               0         Blade 1 Z force, node 40, N
        121     9.75310546875E+003                                                     F               0         Blade 1 X force, node 41, N
        122    -3.92951733398E+003                                                     F               0         Blade 1 Y force, node 41, N
        123     8.93640136719E+002                                                     F               0         Blade 1 Z force, node 41, N
        124     8.37382421875E+003                                                     F               0         Blade 1 X force, node 42, N
        125    -3.29807153320E+003                                                     F               0         Blade 1 Y force, node 42, N
        126     7.10797973633E+002                                                     F               0         Blade 1 Z force, node 42, N
        127     8.36068261719E+003                                                     F               0         Blade 1 X force, node 43, N
        128    -3.22141113281E+003                                                     F               0         Blade 1 Y force, node 43, N
        129     6.56387084961E+002                                                     F               0         Blade 1 Z force, node 43, N
        130     8.37827929688E+003                                                     F               0         Blade 1 X force, node 44, N
        131    -3.15748339844E+003                                                     F               0         Blade 1 Y force, node 44, N
        132     6.05051940918E+002                                                     F               0         Blade 1 Z force, node 44, N
        133     8.21075781250E+003                                                     F               0         Blade 1 X force, node 45, N
        134    -3.02938769531E+003                                                     F               0         Blade 1 Y force, node 45, N