
Linearized model: Predictions were generated on 13-Feb-2024 at 12:12:09 using OpenFAST, compiled as a 64-bit application using single precision at commit v3.5.1
 linked with  NWTC Subroutine Library; ElastoDyn; InflowWind; AeroDyn; ServoDyn; HydroDyn; MAP++ (<1.20.10>, <Oct-20-2023>)

Description from the FAST input file: CCT-9 Campign 4 model. Input files to be run with OpenFAST 3.5.0. GitHub branch from Lu Wang (https://github.com/luwang00/openfast/tree/dev) compiled on March 7, 2023.

Simulation information:
   Simulation time:                   772.0000 s
   Rotor Speed:                         0.7918 rad/s
   Azimuth:                             1.2390 rad
   Wind Speed:                         24.0000 m/s
   Number of continuous states:        22
   Number of discrete states:           0
   Number of constraint states:         0
   Number of inputs:                 1890
   Number of outputs:                  25
   Jacobians included in this file?    No

Order of continuous states:
   Row/Column Operating Point                                                   Rotating Frame? Derivative Order Description
   ---------- ---------------                                                   --------------- ---------------- -----------
          1     6.82569217682E+000                                                     F               2         Platform horizontal surge translation DOF (internal DOF index = DOF_Sg), m
          2    -8.28355312347E-001                                                     F               2         Platform horizontal sway translation DOF (internal DOF index = DOF_Sw), m
          3    -1.05259753764E-001                                                     F               2         Platform vertical heave translation DOF (internal DOF index = DOF_Hv), m
          4     5.44473454356E-002                                                     F               2         Platform roll tilt rotation DOF (internal DOF index = DOF_R), rad
          5     9.53029096127E-002                                                     F               2         Platform pitch tilt rotation DOF (internal DOF index = DOF_P), rad
          6    -9.30773746222E-003                                                     F               2         Platform yaw rotation DOF (internal DOF index = DOF_Y), rad
          7     5.29231846333E-001                                                     F               2         1st tower fore-aft bending mode DOF (internal DOF index = DOF_TFA1), m
          8     2.59753972292E-001                                                     F               2         1st tower side-to-side bending mode DOF (internal DOF index = DOF_TSS1), m
          9     1.51377252769E-003                                                     F               2         2nd tower fore-aft bending mode DOF (internal DOF index = DOF_TFA2), m
         10    -2.90445750579E-004                                                     F               2         2nd tower side-to-side bending mode DOF (internal DOF index = DOF_TSS2), m
         11     5.95140266418E+000                                                     F               2         Variable speed generator DOF (internal DOF index = DOF_GeAz), rad
         12     1.06979894917E-003                                                     F               2         First time derivative of Platform horizontal surge translation DOF (internal DOF index = DOF_Sg), m/s
         13     1.79565104190E-003                                                     F               2         First time derivative of Platform horizontal sway translation DOF (internal DOF index = DOF_Sw), m/s
         14     7.45957077015E-004                                                     F               2         First time derivative of Platform vertical heave translation DOF (internal DOF index = DOF_Hv), m/s
         15    -7.57607194828E-005                                                     F               2         First time derivative of Platform roll tilt rotation DOF (internal DOF index = DOF_R), rad/s
         16     1.25348407892E-004                                                     F               2         First time derivative of Platform pitch tilt rotation DOF (internal DOF index = DOF_P), rad/s
         17     6.51710524835E-006                                                     F               2         First time derivative of Platform yaw rotation DOF (internal DOF index = DOF_Y), rad/s
         18    -2.95084379613E-002                                                     F               2         First time derivative of 1st tower fore-aft bending mode DOF (internal DOF index = DOF_TFA1), m/s
         19     1.47319929674E-002                                                     F               2         First time derivative of 1st tower side-to-side bending mode DOF (internal DOF index = DOF_TSS1), m/s
         20     2.91769392788E-004                                                     F               2         First time derivative of 2nd tower fore-aft bending mode DOF (internal DOF index = DOF_TFA2), m/s
         21     5.88960483583E-006                                                     F               2         First time derivative of 2nd tower side-to-side bending mode DOF (internal DOF index = DOF_TSS2), m/s
         22     7.91771769524E-001                                                     F               2         First time derivative of Variable speed generator DOF (internal DOF index = DOF_GeAz), rad/s

Order of continuous state derivatives:
   Row/Column Operating Point                                                   Rotating Frame? Derivative Order Description
   ---------- ---------------                                                   --------------- ---------------- -----------
          1     1.06979894917E-003                                                     F               2         First time derivative of Platform horizontal surge translation DOF (internal DOF index = DOF_Sg), m/s
          2     1.79565104190E-003                                                     F               2         First time derivative of Platform horizontal sway translation DOF (internal DOF index = DOF_Sw), m/s
          3     7.45957077015E-004                                                     F               2         First time derivative of Platform vertical heave translation DOF (internal DOF index = DOF_Hv), m/s
          4    -7.57607194828E-005                                                     F               2         First time derivative of Platform roll tilt rotation DOF (internal DOF index = DOF_R), rad/s
          5     1.25348407892E-004                                                     F               2         First time derivative of Platform pitch tilt rotation DOF (internal DOF index = DOF_P), rad/s
          6     6.51710524835E-006                                                     F               2         First time derivative of Platform yaw rotation DOF (internal DOF index = DOF_Y), rad/s
          7    -2.95084379613E-002                                                     F               2         First time derivative of 1st tower fore-aft bending mode DOF (internal DOF index = DOF_TFA1), m/s
          8     1.47319929674E-002                                                     F               2         First time derivative of 1st tower side-to-side bending mode DOF (internal DOF index = DOF_TSS1), m/s
          9     2.91769392788E-004                                                     F               2         First time derivative of 2nd tower fore-aft bending mode DOF (internal DOF index = DOF_TFA2), m/s
         10     5.88960483583E-006                                                     F               2         First time derivative of 2nd tower side-to-side bending mode DOF (internal DOF index = DOF_TSS2), m/s
         11     7.91771769524E-001                                                     F               2         First time derivative of Variable speed generator DOF (internal DOF index = DOF_GeAz), rad/s
         12    -7.58539186791E-003                                                     F               2         First time derivative of First time derivative of Platform horizontal surge translation DOF (internal DOF index = DOF_Sg), m/s/s
         13     4.07451717183E-003                                                     F               2         First time derivative of First time derivative of Platform horizontal sway translation DOF (internal DOF index = DOF_Sw), m/s/s
         14    -7.53249216359E-004                                                     F               2         First time derivative of First time derivative of Platform vertical heave translation DOF (internal DOF index = DOF_Hv), m/s/s
         15    -2.41217581788E-004                                                     F               2         First time derivative of First time derivative of Platform roll tilt rotation DOF (internal DOF index = DOF_R), rad/s/s
         16    -4.84113959828E-004                                                     F               2         First time derivative of First time derivative of Platform pitch tilt rotation DOF (internal DOF index = DOF_P), rad/s/s
         17    -2.63172714767E-005                                                     F               2         First time derivative of First time derivative of Platform yaw rotation DOF (internal DOF index = DOF_Y), rad/s/s
         18     1.11145906150E-001                                                     F               2         First time derivative of First time derivative of 1st tower fore-aft bending mode DOF (internal DOF index = DOF_TFA1), m/s/s
         19     5.12946546078E-002                                                     F               2         First time derivative of First time derivative of 1st tower side-to-side bending mode DOF (internal DOF index = DOF_TSS1), m/s/s
         20    -2.55488284893E-005                                                     F               2         First time derivative of First time derivative of 2nd tower fore-aft bending mode DOF (internal DOF index = DOF_TFA2), m/s/s
         21    -5.84274996072E-004                                                     F               2         First time derivative of First time derivative of 2nd tower side-to-side bending mode DOF (internal DOF index = DOF_TSS2), m/s/s
         22    -1.05411349796E-003                                                     F               2         First time derivative of First time derivative of Variable speed generator DOF (internal DOF index = DOF_GeAz), rad/s/s

Order of inputs:
     Column   Operating Point                                                   Rotating Frame? Derivative Order Description
   ---------- ---------------                                                   --------------- ---------------- -----------
          1     4.43418945312E+002                                                     F               0         Blade 1 X force, node 1, N
          2     7.75838012695E+001                                                     F               0         Blade 1 Y force, node 1, N
          3     1.90341308594E+002                                                     F               0         Blade 1 Z force, node 1, N
          4     1.63594689941E+003                                                     F               0         Blade 1 X force, node 2, N
          5     1.25137718201E+002                                                     F               0         Blade 1 Y force, node 2, N
          6     1.15740653992E+002                                                     F               0         Blade 1 Z force, node 2, N
          7     1.79048303223E+003                                                     F               0         Blade 1 X force, node 3, N
          8     2.58142018318E+000                                                     F               0         Blade 1 Y force, node 3, N
          9    -3.62543548584E+002                                                     F               0         Blade 1 Z force, node 3, N
         10     2.11720092773E+003                                                     F               0         Blade 1 X force, node 4, N
         11    -1.05277854919E+002                                                     F               0         Blade 1 Y force, node 4, N
         12    -8.23089050293E+002                                                     F               0         Blade 1 Z force, node 4, N
         13     2.44393676758E+003                                                     F               0         Blade 1 X force, node 5, N
         14    -2.13139038086E+002                                                     F               0         Blade 1 Y force, node 5, N
         15    -1.28364514160E+003                                                     F               0         Blade 1 Z force, node 5, N
         16     2.77065820312E+003                                                     F               0         Blade 1 X force, node 6, N
         17    -3.20999481201E+002                                                     F               0         Blade 1 Y force, node 6, N
         18    -1.74419580078E+003                                                     F               0         Blade 1 Z force, node 6, N
         19     3.09735888672E+003                                                     F               0         Blade 1 X force, node 7, N
         20    -4.28857055664E+002                                                     F               0         Blade 1 Y force, node 7, N
         21    -2.20473168945E+003                                                     F               0         Blade 1 Z force, node 7, N
         22     3.42407714844E+003                                                     F               0         Blade 1 X force, node 8, N
         23    -5.36716369629E+002                                                     F               0         Blade 1 Y force, node 8, N
         24    -2.66527734375E+003                                                     F               0         Blade 1 Z force, node 8, N
         25     3.75079516602E+003                                                     F               0         Blade 1 X force, node 9, N
         26    -6.44575683594E+002                                                     F               0         Blade 1 Y force, node 9, N
         27    -3.12582324219E+003                                                     F               0         Blade 1 Z force, node 9, N
         28     4.07751293945E+003                                                     F               0         Blade 1 X force, node 10, N
         29    -7.52434875488E+002                                                     F               0         Blade 1 Y force, node 10, N
         30    -3.58636865234E+003                                                     F               0         Blade 1 Z force, node 10, N
         31     4.40423095703E+003                                                     F               0         Blade 1 X force, node 11, N
         32    -8.60294250488E+002                                                     F               0         Blade 1 Y force, node 11, N
         33    -4.04691406250E+003                                                     F               0         Blade 1 Z force, node 11, N
         34     4.73098144531E+003                                                     F               0         Blade 1 X force, node 12, N
         35    -9.68160400391E+002                                                     F               0         Blade 1 Y force, node 12, N
         36    -4.50749169922E+003                                                     F               0         Blade 1 Z force, node 12, N
         37     5.05770312500E+003                                                     F               0         Blade 1 X force, node 13, N
         38    -1.07602087402E+003                                                     F               0         Blade 1 Y force, node 13, N
         39    -4.96804248047E+003                                                     F               0         Blade 1 Z force, node 13, N
         40     5.38438916016E+003                                                     F               0         Blade 1 X force, node 14, N
         41    -1.18387353516E+003                                                     F               0         Blade 1 Y force, node 14, N
         42    -5.42855761719E+003                                                     F               0         Blade 1 Z force, node 14, N
         43     5.71114550781E+003                                                     F               0         Blade 1 X force, node 15, N
         44    -1.29174145508E+003                                                     F               0         Blade 1 Y force, node 15, N
         45    -5.88914208984E+003                                                     F               0         Blade 1 Z force, node 15, N
         46     6.03782421875E+003                                                     F               0         Blade 1 X force, node 16, N
         47    -1.39959167480E+003                                                     F               0         Blade 1 Y force, node 16, N
         48    -6.34964648438E+003                                                     F               0         Blade 1 Z force, node 16, N
         49     7.36846435547E+003                                                     F               0         Blade 1 X force, node 17, N
         50    -1.74127404785E+003                                                     F               0         Blade 1 Y force, node 17, N
         51    -7.87000195312E+003                                                     F               0         Blade 1 Z force, node 17, N
         52     5.52195654297E+003                                                     F               0         Blade 1 X force, node 18, N
         53    -1.28483508301E+003                                                     F               0         Blade 1 Y force, node 18, N
         54    -5.82469677734E+003                                                     F               0         Blade 1 Z force, node 18, N
         55     6.64386132812E+003                                                     F               0         Blade 1 X force, node 19, N
         56    -1.50447875977E+003                                                     F               0         Blade 1 Y force, node 19, N
         57    -6.85739404297E+003                                                     F               0         Blade 1 Z force, node 19, N
         58     5.56031689453E+003                                                     F               0         Blade 1 X force, node 20, N
         59    -1.22586877441E+003                                                     F               0         Blade 1 Y force, node 20, N
         60    -5.61799218750E+003                                                     F               0         Blade 1 Z force, node 20, N
         61     8.02878759766E+003                                                     F               0         Blade 1 X force, node 21, N
         62    -1.71566308594E+003                                                     F               0         Blade 1 Y force, node 21, N
         63    -7.91393408203E+003                                                     F               0         Blade 1 Z force, node 21, N
         64     6.91463134766E+003                                                     F               0         Blade 1 X force, node 22, N
         65    -1.43265563965E+003                                                     F               0         Blade 1 Y force, node 22, N
         66    -6.65216210938E+003                                                     F               0         Blade 1 Z force, node 22, N
         67     6.94613574219E+003                                                     F               0         Blade 1 X force, node 23, N
         68    -1.39807434082E+003                                                     F               0         Blade 1 Y force, node 23, N
         69    -6.53280859375E+003                                                     F               0         Blade 1 Z force, node 23, N
         70     7.09162841797E+003                                                     F               0         Blade 1 X force, node 24, N
         71    -1.38665686035E+003                                                     F               0         Blade 1 Y force, node 24, N
         72    -6.52146435547E+003                                                     F               0         Blade 1 Z force, node 24, N
         73     7.07967871094E+003                                                     F               0         Blade 1 X force, node 25, N
         74    -1.34673132324E+003                                                     F               0         Blade 1 Y force, node 25, N
         75    -6.37362841797E+003                                                     F               0         Blade 1 Z force, node 25, N
         76     7.10031738281E+003                                                     F               0         Blade 1 X force, node 26, N
         77    -1.31385827637E+003                                                     F               0         Blade 1 Y force, node 26, N
         78    -6.25823730469E+003                                                     F               0         Blade 1 Z force, node 26, N
         79     8.27818652344E+003                                                     F               0         Blade 1 X force, node 27, N
         80    -1.48685363770E+003                                                     F               0         Blade 1 Y force, node 27, N
         81    -7.13273144531E+003                                                     F               0         Blade 1 Z force, node 27, N
         82     5.96230859375E+003                                                     F               0         Blade 1 X force, node 28, N
         83    -1.04139184570E+003                                                     F               0         Blade 1 Y force, node 28, N
         84    -5.02988769531E+003                                                     F               0         Blade 1 Z force, node 28, N
         85     7.11207031250E+003                                                     F               0         Blade 1 X force, node 29, N
         86    -1.21334594727E+003                                                     F               0         Blade 1 Y force, node 29, N
         87    -5.89475146484E+003                                                     F               0         Blade 1 Z force, node 29, N
         88     5.90395263672E+003                                                     F               0         Blade 1 X force, node 30, N
         89    -9.83330139160E+002                                                     F               0         Blade 1 Y force, node 30, N
         90    -4.80638330078E+003                                                     F               0         Blade 1 Z force, node 30, N
         91     8.27257324219E+003                                                     F               0         Blade 1 X force, node 31, N
         92    -1.33984069824E+003                                                     F               0         Blade 1 Y force, node 31, N
         93    -6.59634521484E+003                                                     F               0         Blade 1 Z force, node 31, N
         94     7.01741503906E+003                                                     F               0         Blade 1 X force, node 32, N
         95    -1.10624169922E+003                                                     F               0         Blade 1 Y force, node 32, N
         96    -5.48516015625E+003                                                     F               0         Blade 1 Z force, node 32, N
         97     6.95731884766E+003                                                     F               0         Blade 1 X force, node 33, N
         98    -1.06829284668E+003                                                     F               0         Blade 1 Y force, node 33, N
         99    -5.33451904297E+003                                                     F               0         Blade 1 Z force, node 33, N
        100     6.89396728516E+003                                                     F               0         Blade 1 X force, node 34, N
        101    -1.03059570312E+003                                                     F               0         Blade 1 Y force, node 34, N
        102    -5.18411816406E+003                                                     F               0         Blade 1 Z force, node 34, N
        103     6.81046923828E+003                                                     F               0         Blade 1 X force, node 35, N
        104    -9.92813720703E+002                                                     F               0         Blade 1 Y force, node 35, N
        105    -5.02922216797E+003                                                     F               0         Blade 1 Z force, node 35, N
        106     6.72011962891E+003                                                     F               0         Blade 1 X force, node 36, N
        107    -9.54744995117E+002                                                     F               0         Blade 1 Y force, node 36, N
        108    -4.87186035156E+003                                                     F               0         Blade 1 Z force, node 36, N
        109     7.73753125000E+003                                                     F               0         Blade 1 X force, node 37, N
        110    -1.06824035645E+003                                                     F               0         Blade 1 Y force, node 37, N
        111    -5.49640429688E+003                                                     F               0         Blade 1 Z force, node 37, N
        112     5.40877929688E+003                                                     F               0         Blade 1 X force, node 38, N
        113    -7.26893737793E+002                                                     F               0         Blade 1 Y force, node 38, N
        114    -3.76993041992E+003                                                     F               0         Blade 1 Z force, node 38, N
        115     6.39253955078E+003                                                     F               0         Blade 1 X force, node 39, N
        116    -8.39666137695E+002                                                     F               0         Blade 1 Y force, node 39, N
        117    -4.38485107422E+003                                                     F               0         Blade 1 Z force, node 39, N
        118     5.25596386719E+003                                                     F               0         Blade 1 X force, node 40, N
        119    -6.73764770508E+002                                                     F               0         Blade 1 Y force, node 40, N
        120    -3.54476245117E+003                                                     F               0         Blade 1 Z force, node 40, N
        121     7.14412695312E+003                                                     F               0         Blade 1 X force, node 41, N
        122    -8.89742370605E+002                                                     F               0         Blade 1 Y force, node 41, N
        123    -4.72328955078E+003                                                     F               0         Blade 1 Z force, node 41, N
        124     5.98407519531E+003                                                     F               0         Blade 1 X force, node 42, N
        125    -7.24610107422E+002                                                     F               0         Blade 1 Y force, node 42, N
        126    -3.88112402344E+003                                                     F               0         Blade 1 Z force, node 42, N
        127     5.83396728516E+003                                                     F               0         Blade 1 X force, node 43, N
        128    -6.86704284668E+002                                                     F               0         Blade 1 Y force, node 43, N
        129    -3.71193994141E+003                                                     F               0         Blade 1 Z force, node 43, N
        130     5.71007128906E+003                                                     F               0         Blade 1 X force, node 44, N
        131    -6.52343627930E+002                                                     F               0         Blade 1 Y force, node 44, N
        132    -3.56110864258E+003                                                     F               0         Blade 1 Z force, node 44, N
        133     5.48331250000E+003                                                     F               0         Blade 1 X force, node 45, N
        134    -6.08744384766E+002                                                     F               0         Blade 1 Y force, node 45, N