
Linearized model: Predictions were generated on 07-Feb-2024 at 11:38:03 using OpenFAST, compiled as a 64-bit application using single precision at commit v3.5.1
 linked with  NWTC Subroutine Library; ElastoDyn; InflowWind; AeroDyn; ServoDyn; HydroDyn; MAP++ (<1.20.10>, <Oct-20-2023>)

Description from the FAST input file: CCT-9 Campign 4 model. Input files to be run with OpenFAST 3.5.0. GitHub branch from Lu Wang (https://github.com/luwang00/openfast/tree/dev) compiled on March 7, 2023.

Simulation information:
   Simulation time:                  1002.5000 s
   Rotor Speed:                         1.0396 rad/s
   Azimuth:                             3.6478 rad
   Wind Speed:                         12.0000 m/s
   Number of continuous states:         0
   Number of discrete states:           0
   Number of constraint states:         0
   Number of inputs:                  303
   Number of outputs:                   1
   Jacobians included in this file?    No

Order of inputs:
     Column   Operating Point                     Rotating Frame? Derivative Order Description
   ---------- ---------------                     --------------- ---------------- -----------
          1   -1.080E+01                                 F               0         X-component position of node 1 (hub), m
          2    0.000E+00                                 F               0         Y-component position of node 1 (hub), m
          3    1.497E+02                                 F               0         Z-component position of node 1 (hub), m
          4    2.475E+01                                 F               0         X-component position of node 2 (blade 1, node 1), m
          5   -4.728E+00                                 F               0         Y-component position of node 2 (blade 1, node 1), m
          6    1.446E+02                                 F               0         Z-component position of node 2 (blade 1, node 1), m
          7    2.443E+01                                 F               0         X-component position of node 3 (blade 1, node 2), m
          8   -4.025E+00                                 F               0         Y-component position of node 3 (blade 1, node 2), m
          9    1.435E+02                                 F               0         Z-component position of node 3 (blade 1, node 2), m
         10    2.009E+01                                 F               0         X-component position of node 4 (blade 1, node 3), m
         11    5.521E+00                                 F               0         Y-component position of node 4 (blade 1, node 3), m
         12    1.287E+02                                 F               0         Z-component position of node 4 (blade 1, node 3), m
         13    1.916E+01                                 F               0         X-component position of node 5 (blade 1, node 4), m
         14    7.555E+00                                 F               0         Y-component position of node 5 (blade 1, node 4), m
         15    1.255E+02                                 F               0         Z-component position of node 5 (blade 1, node 4), m
         16    1.824E+01                                 F               0         X-component position of node 6 (blade 1, node 5), m
         17    9.590E+00                                 F               0         Y-component position of node 6 (blade 1, node 5), m
         18    1.224E+02                                 F               0         Z-component position of node 6 (blade 1, node 5), m
         19    1.731E+01                                 F               0         X-component position of node 7 (blade 1, node 6), m
         20    1.162E+01                                 F               0         Y-component position of node 7 (blade 1, node 6), m
         21    1.192E+02                                 F               0         Z-component position of node 7 (blade 1, node 6), m
         22    1.639E+01                                 F               0         X-component position of node 8 (blade 1, node 7), m
         23    1.366E+01                                 F               0         Y-component position of node 8 (blade 1, node 7), m
         24    1.160E+02                                 F               0         Z-component position of node 8 (blade 1, node 7), m
         25    1.546E+01                                 F               0         X-component position of node 9 (blade 1, node 8), m
         26    1.569E+01                                 F               0         Y-component position of node 9 (blade 1, node 8), m
         27    1.129E+02                                 F               0         Z-component position of node 9 (blade 1, node 8), m
         28    1.454E+01                                 F               0         X-component position of node 10 (blade 1, node 9), m
         29    1.773E+01                                 F               0         Y-component position of node 10 (blade 1, node 9), m
         30    1.097E+02                                 F               0         Z-component position of node 10 (blade 1, node 9), m
         31    1.361E+01                                 F               0         X-component position of node 11 (blade 1, node 10), m
         32    1.976E+01                                 F               0         Y-component position of node 11 (blade 1, node 10), m
         33    1.066E+02                                 F               0         Z-component position of node 11 (blade 1, node 10), m
         34    1.269E+01                                 F               0         X-component position of node 12 (blade 1, node 11), m
         35    2.179E+01                                 F               0         Y-component position of node 12 (blade 1, node 11), m
         36    1.034E+02                                 F               0         Z-component position of node 12 (blade 1, node 11), m
         37    1.177E+01                                 F               0         X-component position of node 13 (blade 1, node 12), m
         38    2.383E+01                                 F               0         Y-component position of node 13 (blade 1, node 12), m
         39    1.003E+02                                 F               0         Z-component position of node 13 (blade 1, node 12), m
         40    1.084E+01                                 F               0         X-component position of node 14 (blade 1, node 13), m
         41    2.586E+01                                 F               0         Y-component position of node 14 (blade 1, node 13), m
         42    9.710E+01                                 F               0         Z-component position of node 14 (blade 1, node 13), m
         43    9.916E+00                                 F               0         X-component position of node 15 (blade 1, node 14), m
         44    2.790E+01                                 F               0         Y-component position of node 15 (blade 1, node 14), m
         45    9.395E+01                                 F               0         Z-component position of node 15 (blade 1, node 14), m
         46    8.991E+00                                 F               0         X-component position of node 16 (blade 1, node 15), m
         47    2.993E+01                                 F               0         Y-component position of node 16 (blade 1, node 15), m
         48    9.079E+01                                 F               0         Z-component position of node 16 (blade 1, node 15), m
         49    8.066E+00                                 F               0         X-component position of node 17 (blade 1, node 16), m
         50    3.196E+01                                 F               0         Y-component position of node 17 (blade 1, node 16), m
         51    8.763E+01                                 F               0         Z-component position of node 17 (blade 1, node 16), m
         52    7.142E+00                                 F               0         X-component position of node 18 (blade 1, node 17), m
         53    3.400E+01                                 F               0         Y-component position of node 18 (blade 1, node 17), m
         54    8.448E+01                                 F               0         Z-component position of node 18 (blade 1, node 17), m
         55    6.217E+00                                 F               0         X-component position of node 19 (blade 1, node 18), m
         56    3.603E+01                                 F               0         Y-component position of node 19 (blade 1, node 18), m
         57    8.132E+01                                 F               0         Z-component position of node 19 (blade 1, node 18), m
         58    5.292E+00                                 F               0         X-component position of node 20 (blade 1, node 19), m
         59    3.807E+01                                 F               0         Y-component position of node 20 (blade 1, node 19), m
         60    7.816E+01                                 F               0         Z-component position of node 20 (blade 1, node 19), m
         61    4.367E+00                                 F               0         X-component position of node 21 (blade 1, node 20), m
         62    4.010E+01                                 F               0         Y-component position of node 21 (blade 1, node 20), m
         63    7.501E+01                                 F               0         Z-component position of node 21 (blade 1, node 20), m
         64    3.443E+00                                 F               0         X-component position of node 22 (blade 1, node 21), m
         65    4.213E+01                                 F               0         Y-component position of node 22 (blade 1, node 21), m
         66    7.185E+01                                 F               0         Z-component position of node 22 (blade 1, node 21), m
         67    2.518E+00                                 F               0         X-component position of node 23 (blade 1, node 22), m
         68    4.417E+01                                 F               0         Y-component position of node 23 (blade 1, node 22), m
         69    6.869E+01                                 F               0         Z-component position of node 23 (blade 1, node 22), m
         70    1.593E+00                                 F               0         X-component position of node 24 (blade 1, node 23), m
         71    4.620E+01                                 F               0         Y-component position of node 24 (blade 1, node 23), m
         72    6.553E+01                                 F               0         Z-component position of node 24 (blade 1, node 23), m
         73    6.687E-01                                 F               0         X-component position of node 25 (blade 1, node 24), m
         74    4.824E+01                                 F               0         Y-component position of node 25 (blade 1, node 24), m
         75    6.238E+01                                 F               0         Z-component position of node 25 (blade 1, node 24), m
         76   -2.559E-01                                 F               0         X-component position of node 26 (blade 1, node 25), m
         77    5.027E+01                                 F               0         Y-component position of node 26 (blade 1, node 25), m
         78    5.922E+01                                 F               0         Z-component position of node 26 (blade 1, node 25), m
         79   -1.181E+00                                 F               0         X-component position of node 27 (blade 1, node 26), m
         80    5.231E+01                                 F               0         Y-component position of node 27 (blade 1, node 26), m
         81    5.606E+01                                 F               0         Z-component position of node 27 (blade 1, node 26), m
         82   -2.105E+00                                 F               0         X-component position of node 28 (blade 1, node 27), m
         83    5.434E+01                                 F               0         Y-component position of node 28 (blade 1, node 27), m
         84    5.291E+01                                 F               0         Z-component position of node 28 (blade 1, node 27), m
         85   -2.889E+00                                 F               0         X-component position of node 29 (blade 1, node 28), m
         86    5.606E+01                                 F               0         Y-component position of node 29 (blade 1, node 28), m
         87    5.023E+01                                 F               0         Z-component position of node 29 (blade 1, node 28), m
         88    2.734E+01                                 F               0         X-component position of node 30 (blade 2, node 1), m
         89   -5.018E+00                                 F               0         Y-component position of node 30 (blade 2, node 1), m
         90    1.538E+02                                 F               0         Z-component position of node 30 (blade 2, node 1), m
         91    2.764E+01                                 F               0         X-component position of node 31 (blade 2, node 2), m
         92   -4.386E+00                                 F               0         Y-component position of node 31 (blade 2, node 2), m
         93    1.550E+02                                 F               0         Z-component position of node 31 (blade 2, node 2), m
         94    3.179E+01                                 F               0         X-component position of node 32 (blade 2, node 3), m
         95    4.208E+00                                 F               0         Y-component position of node 32 (blade 2, node 3), m
         96    1.704E+02                                 F               0         Z-component position of node 32 (blade 2, node 3), m
         97    3.267E+01                                 F               0         X-component position of node 33 (blade 2, node 4), m
         98    6.039E+00                                 F               0         Y-component position of node 33 (blade 2, node 4), m
         99    1.737E+02                                 F               0         Z-component position of node 33 (blade 2, node 4), m
        100    3.356E+01                                 F               0         X-component position of node 34 (blade 2, node 5), m
        101    7.870E+00                                 F               0         Y-component position of node 34 (blade 2, node 5), m
        102    1.770E+02                                 F               0         Z-component position of node 34 (blade 2, node 5), m
        103    3.444E+01                                 F               0         X-component position of node 35 (blade 2, node 6), m
        104    9.701E+00                                 F               0         Y-component position of node 35 (blade 2, node 6), m
        105    1.803E+02                                 F               0         Z-component position of node 35 (blade 2, node 6), m
        106    3.532E+01                                 F               0         X-component position of node 36 (blade 2, node 7), m
        107    1.153E+01                                 F               0         Y-component position of node 36 (blade 2, node 7), m
        108    1.836E+02                                 F               0         Z-component position of node 36 (blade 2, node 7), m
        109    3.621E+01                                 F               0         X-component position of node 37 (blade 2, node 8), m
        110    1.336E+01                                 F               0         Y-component position of node 37 (blade 2, node 8), m
        111    1.868E+02                                 F               0         Z-component position of node 37 (blade 2, node 8), m
        112    3.709E+01                                 F               0         X-component position of node 38 (blade 2, node 9), m
        113    1.519E+01                                 F               0         Y-component position of node 38 (blade 2, node 9), m
        114    1.901E+02                                 F               0         Z-component position of node 38 (blade 2, node 9), m
        115    3.798E+01                                 F               0         X-component position of node 39 (blade 2, node 10), m
        116    1.703E+01                                 F               0         Y-component position of node 39 (blade 2, node 10), m
        117    1.934E+02                                 F               0         Z-component position of node 39 (blade 2, node 10), m
        118    3.886E+01                                 F               0         X-component position of node 40 (blade 2, node 11), m
        119    1.886E+01                                 F               0         Y-component position of node 40 (blade 2, node 11), m
        120    1.967E+02                                 F               0         Z-component position of node 40 (blade 2, node 11), m
        121    3.974E+01                                 F               0         X-component position of node 41 (blade 2, node 12), m
        122    2.069E+01                                 F               0         Y-component position of node 41 (blade 2, node 12), m
        123    2.000E+02                                 F               0         Z-component position of node 41 (blade 2, node 12), m
        124    4.063E+01                                 F               0         X-component position of node 42 (blade 2, node 13), m
        125    2.252E+01                                 F               0         Y-component position of node 42 (blade 2, node 13), m
        126    2.033E+02                                 F               0         Z-component position of node 42 (blade 2, node 13), m
        127    4.151E+01                                 F               0         X-component position of node 43 (blade 2, node 14), m
        128    2.435E+01                                 F               0         Y-component position of node 43 (blade 2, node 14), m
        129    2.066E+02                                 F               0         Z-component position of node 43 (blade 2, node 14), m
        130    4.239E+01                                 F               0         X-component position of node 44 (blade 2, node 15), m
        131    2.618E+01                                 F               0         Y-component position of node 44 (blade 2, node 15), m
        132    2.099E+02                                 F               0         Z-component position of node 44 (blade 2, node 15), m
        133    4.328E+01                                 F               0         X-component position of node 45 (blade 2, node 16), m
        134    2.801E+01                                 F               0         Y-component position of node 45 (blade 2, node 16), m
        135    2.132E+02                                 F               0         Z-component position of node 45 (blade 2, node 16), m
        136    4.416E+01                                 F               0         X-component position of node 46 (blade 2, node 17), m
        137    2.984E+01                                 F               0         Y-component position of node 46 (blade 2, node 17), m
        138    2.165E+02                                 F               0         Z-component position of node 46 (blade 2, node 17), m
        139    4.505E+01                                 F               0         X-component position of node 47 (blade 2, node 18), m
        140    3.167E+01                                 F               0         Y-component position of node 47 (blade 2, node 18), m
        141    2.197E+02                                 F               0         Z-component position of node 47 (blade 2, node 18), m
        142    4.593E+01                                 F               0         X-component position of node 48 (blade 2, node 19), m
        143    3.351E+01                                 F               0         Y-component position of node 48 (blade 2, node 19), m
        144    2.230E+02                                 F               0         Z-component position of node 48 (blade 2, node 19), m
        145    4.681E+01                                 F               0         X-component position of node 49 (blade 2, node 20), m
        146    3.534E+01                                 F               0         Y-component position of node 49 (blade 2, node 20), m
        147    2.263E+02                                 F               0         Z-component position of node 49 (blade 2, node 20), m
        148    4.770E+01                                 F               0         X-component position of node 50 (blade 2, node 21), m
        149    3.717E+01                                 F               0         Y-component position of node 50 (blade 2, node 21), m
        150    2.296E+02                                 F               0         Z-component position of node 50 (blade 2, node 21), m
        151    4.858E+01                                 F               0         X-component position of node 51 (blade 2, node 22), m
        152    3.900E+01                                 F               0         Y-component position of node 51 (blade 2, node 22), m
        153    2.329E+02                                 F               0         Z-component position of node 51 (blade 2, node 22), m
        154    4.946E+01                                 F               0         X-component position of node 52 (blade 2, node 23), m
        155    4.083E+01                                 F               0         Y-component position of node 52 (blade 2, node 23), m
        156    2.362E+02                                 F               0         Z-component position of node 52 (blade 2, node 23), m
        157    5.035E+01                                 F               0         X-component position of node 53 (blade 2, node 24), m
        158    4.266E+01                                 F               0         Y-component position of node 53 (blade 2, node 24), m
        159    2.395E+02                                 F               0         Z-component position of node 53 (blade 2, node 24), m
        160    5.123E+01                                 F               0         X-component position of node 54 (blade 2, node 25), m
        161    4.449E+01                                 F               0         Y-component position of node 54 (blade 2, node 25), m
        162    2.428E+02                                 F               0         Z-component position of node 54 (blade 2, node 25), m
        163    5.212E+01                                 F               0         X-component position of node 55 (blade 2, node 26), m
        164    4.632E+01                                 F               0         Y-component position of node 55 (blade 2, node 26), m
        165    2.461E+02                                 F               0         Z-component position of node 55 (blade 2, node 26), m
        166    5.300E+01                                 F               0         X-component position of node 56 (blade 2, node 27), m
        167    4.815E+01                                 F               0         Y-component position of node 56 (blade 2, node 27), m
        168    2.494E+02                                 F               0         Z-component position of node 56 (blade 2, node 27), m
        169    5.375E+01                                 F               0         X-component position of node 57 (blade 2, node 28), m
        170    4.971E+01                                 F               0         Y-component position of node 57 (blade 2, node 28), m
        171    2.521E+02                                 F               0         Z-component position of node 57 (blade 2, node 28), m
        172    2.613E+01                                 F               0         X-component position of node 58 (blade 3, node 1), m
        173   -1.318E+01                                 F               0         Y-component position of node 58 (blade 3, node 1), m
        174    1.489E+02                                 F               0         Z-component position of node 58 (blade 3, node 1), m
        175    2.614E+01                                 F               0         X-component position of node 59 (blade 3, node 2), m
        176   -1.451E+01                                 F               0         Y-component position of node 59 (blade 3, node 2), m
        177    1.489E+02                                 F               0         Z-component position of node 59 (blade 3, node 2), m
        178    2.634E+01                                 F               0         X-component position of node 60 (blade 3, node 3), m
        179   -3.265E+01                                 F               0         Y-component position of node 60 (blade 3, node 3), m
        180    1.482E+02                                 F               0         Z-component position of node 60 (blade 3, node 3), m
        181    2.638E+01                                 F               0         X-component position of node 61 (blade 3, node 4), m
        182   -3.652E+01                                 F               0         Y-component position of node 61 (blade 3, node 4), m
        183    1.481E+02                                 F               0         Z-component position of node 61 (blade 3, node 4), m
        184    2.642E+01                                 F               0         X-component position of node 62 (blade 3, node 5), m
        185   -4.038E+01                                 F               0         Y-component position of node 62 (blade 3, node 5), m
        186    1.480E+02                                 F               0         Z-component position of node 62 (blade 3, node 5), m
        187    2.646E+01                                 F               0         X-component position of node 63 (blade 3, node 6), m
        188   -4.425E+01                                 F               0         Y-component position of node 63 (blade 3, node 6), m
        189    1.478E+02                                 F               0         Z-component position of node 63 (blade 3, node 6), m
        190    2.650E+01                                 F               0         X-component position of node 64 (blade 3, node 7), m
        191   -4.811E+01                                 F               0         Y-component position of node 64 (blade 3, node 7), m
        192    1.477E+02                                 F               0         Z-component position of node 64 (blade 3, node 7), m
        193    2.654E+01                                 F               0         X-component position of node 65 (blade 3, node 8), m
        194   -5.198E+01                                 F               0         Y-component position of node 65 (blade 3, node 8), m
        195    1.476E+02                                 F               0         Z-component position of node 65 (blade 3, node 8), m
        196    2.658E+01                                 F               0         X-component position of node 66 (blade 3, node 9), m
        197   -5.584E+01                                 F               0         Y-component position of node 66 (blade 3, node 9), m
        198    1.474E+02                                 F               0         Z-component position of node 66 (blade 3, node 9), m
        199    2.662E+01                                 F               0         X-component position of node 67 (blade 3, node 10), m
        200   -5.971E+01                                 F               0         Y-component position of node 67 (blade 3, node 10), m
        201    1.473E+02                                 F               0         Z-component position of node 67 (blade 3, node 10), m
        202    2.666E+01                                 F               0         X-component position of node 68 (blade 3, node 11), m
        203   -6.357E+01                                 F               0         Y-component position of node 68 (blade 3, node 11), m
        204    1.472E+02                                 F               0         Z-component position of node 68 (blade 3, node 11), m
        205    2.670E+01                                 F               0         X-component position of node 69 (blade 3, node 12), m
        206   -6.744E+01                                 F               0         Y-component position of node 69 (blade 3, node 12), m
        207    1.470E+02                                 F               0         Z-component position of node 69 (blade 3, node 12), m
        208    2.675E+01                                 F               0         X-component position of node 70 (blade 3, node 13), m
        209   -7.130E+01                                 F               0         Y-component position of node 70 (blade 3, node 13), m
        210    1.469E+02                                 F               0         Z-component position of node 70 (blade 3, node 13), m
        211    2.679E+01                                 F               0         X-component position of node 71 (blade 3, node 14), m