
Linearized model: Predictions were generated on 12-Jan-2024 at 09:28:28 using OpenFAST, compiled as a 64-bit application using single precision at commit v3.5.1
 linked with  NWTC Subroutine Library; ElastoDyn; InflowWind; AeroDyn; ServoDyn; HydroDyn; MAP++ (<1.20.10>, <Oct-20-2023>)

Description from the FAST input file: CCT-9 Campign 4 model. Input files to be run with OpenFAST 3.5.0. GitHub branch from Lu Wang (https://github.com/luwang00/openfast/tree/dev) compiled on March 7, 2023.

Simulation information:
   Simulation time:                   507.4250 s
   Rotor Speed:                         0.8780 rad/s
   Azimuth:                             4.0869 rad
   Wind Speed:                         10.0000 m/s
   Number of continuous states:         0
   Number of discrete states:           0
   Number of constraint states:         0
   Number of inputs:                  303
   Number of outputs:                   1
   Jacobians included in this file?    No

Order of inputs:
     Column   Operating Point                     Rotating Frame? Derivative Order Description
   ---------- ---------------                     --------------- ---------------- -----------
          1   -1.080E+01                                 F               0         X-component position of node 1 (hub), m
          2    0.000E+00                                 F               0         Y-component position of node 1 (hub), m
          3    1.497E+02                                 F               0         Z-component position of node 1 (hub), m
          4    1.583E+01                                 F               0         X-component position of node 2 (blade 1, node 1), m
          5   -3.004E+00                                 F               0         Y-component position of node 2 (blade 1, node 1), m
          6    1.467E+02                                 F               0         Z-component position of node 2 (blade 1, node 1), m
          7    1.565E+01                                 F               0         X-component position of node 3 (blade 1, node 2), m
          8   -1.886E+00                                 F               0         Y-component position of node 3 (blade 1, node 2), m
          9    1.460E+02                                 F               0         Z-component position of node 3 (blade 1, node 2), m
         10    1.314E+01                                 F               0         X-component position of node 4 (blade 1, node 3), m
         11    1.332E+01                                 F               0         Y-component position of node 4 (blade 1, node 3), m
         12    1.364E+02                                 F               0         Z-component position of node 4 (blade 1, node 3), m
         13    1.261E+01                                 F               0         X-component position of node 5 (blade 1, node 4), m
         14    1.655E+01                                 F               0         Y-component position of node 5 (blade 1, node 4), m
         15    1.343E+02                                 F               0         Z-component position of node 5 (blade 1, node 4), m
         16    1.208E+01                                 F               0         X-component position of node 6 (blade 1, node 5), m
         17    1.979E+01                                 F               0         Y-component position of node 6 (blade 1, node 5), m
         18    1.323E+02                                 F               0         Z-component position of node 6 (blade 1, node 5), m
         19    1.154E+01                                 F               0         X-component position of node 7 (blade 1, node 6), m
         20    2.303E+01                                 F               0         Y-component position of node 7 (blade 1, node 6), m
         21    1.303E+02                                 F               0         Z-component position of node 7 (blade 1, node 6), m
         22    1.101E+01                                 F               0         X-component position of node 8 (blade 1, node 7), m
         23    2.627E+01                                 F               0         Y-component position of node 8 (blade 1, node 7), m
         24    1.282E+02                                 F               0         Z-component position of node 8 (blade 1, node 7), m
         25    1.047E+01                                 F               0         X-component position of node 9 (blade 1, node 8), m
         26    2.951E+01                                 F               0         Y-component position of node 9 (blade 1, node 8), m
         27    1.262E+02                                 F               0         Z-component position of node 9 (blade 1, node 8), m
         28    9.940E+00                                 F               0         X-component position of node 10 (blade 1, node 9), m
         29    3.275E+01                                 F               0         Y-component position of node 10 (blade 1, node 9), m
         30    1.241E+02                                 F               0         Z-component position of node 10 (blade 1, node 9), m
         31    9.406E+00                                 F               0         X-component position of node 11 (blade 1, node 10), m
         32    3.599E+01                                 F               0         Y-component position of node 11 (blade 1, node 10), m
         33    1.221E+02                                 F               0         Z-component position of node 11 (blade 1, node 10), m
         34    8.872E+00                                 F               0         X-component position of node 12 (blade 1, node 11), m
         35    3.923E+01                                 F               0         Y-component position of node 12 (blade 1, node 11), m
         36    1.200E+02                                 F               0         Z-component position of node 12 (blade 1, node 11), m
         37    8.338E+00                                 F               0         X-component position of node 13 (blade 1, node 12), m
         38    4.246E+01                                 F               0         Y-component position of node 13 (blade 1, node 12), m
         39    1.180E+02                                 F               0         Z-component position of node 13 (blade 1, node 12), m
         40    7.805E+00                                 F               0         X-component position of node 14 (blade 1, node 13), m
         41    4.570E+01                                 F               0         Y-component position of node 14 (blade 1, node 13), m
         42    1.159E+02                                 F               0         Z-component position of node 14 (blade 1, node 13), m
         43    7.271E+00                                 F               0         X-component position of node 15 (blade 1, node 14), m
         44    4.894E+01                                 F               0         Y-component position of node 15 (blade 1, node 14), m
         45    1.139E+02                                 F               0         Z-component position of node 15 (blade 1, node 14), m
         46    6.737E+00                                 F               0         X-component position of node 16 (blade 1, node 15), m
         47    5.218E+01                                 F               0         Y-component position of node 16 (blade 1, node 15), m
         48    1.118E+02                                 F               0         Z-component position of node 16 (blade 1, node 15), m
         49    6.203E+00                                 F               0         X-component position of node 17 (blade 1, node 16), m
         50    5.542E+01                                 F               0         Y-component position of node 17 (blade 1, node 16), m
         51    1.098E+02                                 F               0         Z-component position of node 17 (blade 1, node 16), m
         52    5.669E+00                                 F               0         X-component position of node 18 (blade 1, node 17), m
         53    5.866E+01                                 F               0         Y-component position of node 18 (blade 1, node 17), m
         54    1.078E+02                                 F               0         Z-component position of node 18 (blade 1, node 17), m
         55    5.135E+00                                 F               0         X-component position of node 19 (blade 1, node 18), m
         56    6.190E+01                                 F               0         Y-component position of node 19 (blade 1, node 18), m
         57    1.057E+02                                 F               0         Z-component position of node 19 (blade 1, node 18), m
         58    4.601E+00                                 F               0         X-component position of node 20 (blade 1, node 19), m
         59    6.514E+01                                 F               0         Y-component position of node 20 (blade 1, node 19), m
         60    1.037E+02                                 F               0         Z-component position of node 20 (blade 1, node 19), m
         61    4.068E+00                                 F               0         X-component position of node 21 (blade 1, node 20), m
         62    6.838E+01                                 F               0         Y-component position of node 21 (blade 1, node 20), m
         63    1.016E+02                                 F               0         Z-component position of node 21 (blade 1, node 20), m
         64    3.534E+00                                 F               0         X-component position of node 22 (blade 1, node 21), m
         65    7.161E+01                                 F               0         Y-component position of node 22 (blade 1, node 21), m
         66    9.957E+01                                 F               0         Z-component position of node 22 (blade 1, node 21), m
         67    3.000E+00                                 F               0         X-component position of node 23 (blade 1, node 22), m
         68    7.485E+01                                 F               0         Y-component position of node 23 (blade 1, node 22), m
         69    9.752E+01                                 F               0         Z-component position of node 23 (blade 1, node 22), m
         70    2.466E+00                                 F               0         X-component position of node 24 (blade 1, node 23), m
         71    7.809E+01                                 F               0         Y-component position of node 24 (blade 1, node 23), m
         72    9.548E+01                                 F               0         Z-component position of node 24 (blade 1, node 23), m
         73    1.932E+00                                 F               0         X-component position of node 25 (blade 1, node 24), m
         74    8.133E+01                                 F               0         Y-component position of node 25 (blade 1, node 24), m
         75    9.343E+01                                 F               0         Z-component position of node 25 (blade 1, node 24), m
         76    1.398E+00                                 F               0         X-component position of node 26 (blade 1, node 25), m
         77    8.457E+01                                 F               0         Y-component position of node 26 (blade 1, node 25), m
         78    9.139E+01                                 F               0         Z-component position of node 26 (blade 1, node 25), m
         79    8.643E-01                                 F               0         X-component position of node 27 (blade 1, node 26), m
         80    8.781E+01                                 F               0         Y-component position of node 27 (blade 1, node 26), m
         81    8.934E+01                                 F               0         Z-component position of node 27 (blade 1, node 26), m
         82    3.305E-01                                 F               0         X-component position of node 28 (blade 1, node 27), m
         83    9.105E+01                                 F               0         Y-component position of node 28 (blade 1, node 27), m
         84    8.730E+01                                 F               0         Z-component position of node 28 (blade 1, node 27), m
         85   -1.221E-01                                 F               0         X-component position of node 29 (blade 1, node 28), m
         86    9.379E+01                                 F               0         Y-component position of node 29 (blade 1, node 28), m
         87    8.556E+01                                 F               0         Z-component position of node 29 (blade 1, node 28), m
         88    1.786E+01                                 F               0         X-component position of node 30 (blade 2, node 1), m
         89   -7.341E+00                                 F               0         Y-component position of node 30 (blade 2, node 1), m
         90    1.550E+02                                 F               0         Z-component position of node 30 (blade 2, node 1), m
         91    1.817E+01                                 F               0         X-component position of node 31 (blade 2, node 2), m
         92   -7.269E+00                                 F               0         Y-component position of node 31 (blade 2, node 2), m
         93    1.563E+02                                 F               0         Z-component position of node 31 (blade 2, node 2), m
         94    2.231E+01                                 F               0         X-component position of node 32 (blade 2, node 3), m
         95   -6.280E+00                                 F               0         Y-component position of node 32 (blade 2, node 3), m
         96    1.740E+02                                 F               0         Z-component position of node 32 (blade 2, node 3), m
         97    2.319E+01                                 F               0         X-component position of node 33 (blade 2, node 4), m
         98   -6.070E+00                                 F               0         Y-component position of node 33 (blade 2, node 4), m
         99    1.777E+02                                 F               0         Z-component position of node 33 (blade 2, node 4), m
        100    2.407E+01                                 F               0         X-component position of node 34 (blade 2, node 5), m
        101   -5.859E+00                                 F               0         Y-component position of node 34 (blade 2, node 5), m
        102    1.815E+02                                 F               0         Z-component position of node 34 (blade 2, node 5), m
        103    2.495E+01                                 F               0         X-component position of node 35 (blade 2, node 6), m
        104   -5.648E+00                                 F               0         Y-component position of node 35 (blade 2, node 6), m
        105    1.852E+02                                 F               0         Z-component position of node 35 (blade 2, node 6), m
        106    2.584E+01                                 F               0         X-component position of node 36 (blade 2, node 7), m
        107   -5.438E+00                                 F               0         Y-component position of node 36 (blade 2, node 7), m
        108    1.890E+02                                 F               0         Z-component position of node 36 (blade 2, node 7), m
        109    2.672E+01                                 F               0         X-component position of node 37 (blade 2, node 8), m
        110   -5.227E+00                                 F               0         Y-component position of node 37 (blade 2, node 8), m
        111    1.928E+02                                 F               0         Z-component position of node 37 (blade 2, node 8), m
        112    2.760E+01                                 F               0         X-component position of node 38 (blade 2, node 9), m
        113   -5.016E+00                                 F               0         Y-component position of node 38 (blade 2, node 9), m
        114    1.965E+02                                 F               0         Z-component position of node 38 (blade 2, node 9), m
        115    2.848E+01                                 F               0         X-component position of node 39 (blade 2, node 10), m
        116   -4.806E+00                                 F               0         Y-component position of node 39 (blade 2, node 10), m
        117    2.003E+02                                 F               0         Z-component position of node 39 (blade 2, node 10), m
        118    2.937E+01                                 F               0         X-component position of node 40 (blade 2, node 11), m
        119   -4.595E+00                                 F               0         Y-component position of node 40 (blade 2, node 11), m
        120    2.040E+02                                 F               0         Z-component position of node 40 (blade 2, node 11), m
        121    3.025E+01                                 F               0         X-component position of node 41 (blade 2, node 12), m
        122   -4.384E+00                                 F               0         Y-component position of node 41 (blade 2, node 12), m
        123    2.078E+02                                 F               0         Z-component position of node 41 (blade 2, node 12), m
        124    3.113E+01                                 F               0         X-component position of node 42 (blade 2, node 13), m
        125   -4.174E+00                                 F               0         Y-component position of node 42 (blade 2, node 13), m
        126    2.116E+02                                 F               0         Z-component position of node 42 (blade 2, node 13), m
        127    3.201E+01                                 F               0         X-component position of node 43 (blade 2, node 14), m
        128   -3.963E+00                                 F               0         Y-component position of node 43 (blade 2, node 14), m
        129    2.153E+02                                 F               0         Z-component position of node 43 (blade 2, node 14), m
        130    3.290E+01                                 F               0         X-component position of node 44 (blade 2, node 15), m
        131   -3.753E+00                                 F               0         Y-component position of node 44 (blade 2, node 15), m
        132    2.191E+02                                 F               0         Z-component position of node 44 (blade 2, node 15), m
        133    3.378E+01                                 F               0         X-component position of node 45 (blade 2, node 16), m
        134   -3.542E+00                                 F               0         Y-component position of node 45 (blade 2, node 16), m
        135    2.228E+02                                 F               0         Z-component position of node 45 (blade 2, node 16), m
        136    3.466E+01                                 F               0         X-component position of node 46 (blade 2, node 17), m
        137   -3.331E+00                                 F               0         Y-component position of node 46 (blade 2, node 17), m
        138    2.266E+02                                 F               0         Z-component position of node 46 (blade 2, node 17), m
        139    3.554E+01                                 F               0         X-component position of node 47 (blade 2, node 18), m
        140   -3.121E+00                                 F               0         Y-component position of node 47 (blade 2, node 18), m
        141    2.304E+02                                 F               0         Z-component position of node 47 (blade 2, node 18), m
        142    3.642E+01                                 F               0         X-component position of node 48 (blade 2, node 19), m
        143   -2.910E+00                                 F               0         Y-component position of node 48 (blade 2, node 19), m
        144    2.341E+02                                 F               0         Z-component position of node 48 (blade 2, node 19), m
        145    3.731E+01                                 F               0         X-component position of node 49 (blade 2, node 20), m
        146   -2.700E+00                                 F               0         Y-component position of node 49 (blade 2, node 20), m
        147    2.379E+02                                 F               0         Z-component position of node 49 (blade 2, node 20), m
        148    3.819E+01                                 F               0         X-component position of node 50 (blade 2, node 21), m
        149   -2.489E+00                                 F               0         Y-component position of node 50 (blade 2, node 21), m
        150    2.416E+02                                 F               0         Z-component position of node 50 (blade 2, node 21), m
        151    3.907E+01                                 F               0         X-component position of node 51 (blade 2, node 22), m
        152   -2.278E+00                                 F               0         Y-component position of node 51 (blade 2, node 22), m
        153    2.454E+02                                 F               0         Z-component position of node 51 (blade 2, node 22), m
        154    3.995E+01                                 F               0         X-component position of node 52 (blade 2, node 23), m
        155   -2.068E+00                                 F               0         Y-component position of node 52 (blade 2, node 23), m
        156    2.492E+02                                 F               0         Z-component position of node 52 (blade 2, node 23), m
        157    4.084E+01                                 F               0         X-component position of node 53 (blade 2, node 24), m
        158   -1.857E+00                                 F               0         Y-component position of node 53 (blade 2, node 24), m
        159    2.529E+02                                 F               0         Z-component position of node 53 (blade 2, node 24), m
        160    4.172E+01                                 F               0         X-component position of node 54 (blade 2, node 25), m
        161   -1.646E+00                                 F               0         Y-component position of node 54 (blade 2, node 25), m
        162    2.567E+02                                 F               0         Z-component position of node 54 (blade 2, node 25), m
        163    4.260E+01                                 F               0         X-component position of node 55 (blade 2, node 26), m
        164   -1.436E+00                                 F               0         Y-component position of node 55 (blade 2, node 26), m
        165    2.604E+02                                 F               0         Z-component position of node 55 (blade 2, node 26), m
        166    4.348E+01                                 F               0         X-component position of node 56 (blade 2, node 27), m
        167   -1.225E+00                                 F               0         Y-component position of node 56 (blade 2, node 27), m
        168    2.642E+02                                 F               0         Z-component position of node 56 (blade 2, node 27), m
        169    4.423E+01                                 F               0         X-component position of node 57 (blade 2, node 28), m
        170   -1.047E+00                                 F               0         Y-component position of node 57 (blade 2, node 28), m
        171    2.674E+02                                 F               0         Z-component position of node 57 (blade 2, node 28), m
        172    1.610E+01                                 F               0         X-component position of node 58 (blade 3, node 1), m
        173   -1.258E+01                                 F               0         Y-component position of node 58 (blade 3, node 1), m
        174    1.472E+02                                 F               0         Z-component position of node 58 (blade 3, node 1), m
        175    1.598E+01                                 F               0         X-component position of node 59 (blade 3, node 2), m
        176   -1.377E+01                                 F               0         Y-component position of node 59 (blade 3, node 2), m
        177    1.466E+02                                 F               0         Z-component position of node 59 (blade 3, node 2), m
        178    1.434E+01                                 F               0         X-component position of node 60 (blade 3, node 3), m
        179   -2.996E+01                                 F               0         Y-component position of node 60 (blade 3, node 3), m
        180    1.385E+02                                 F               0         Z-component position of node 60 (blade 3, node 3), m
        181    1.399E+01                                 F               0         X-component position of node 61 (blade 3, node 4), m
        182   -3.341E+01                                 F               0         Y-component position of node 61 (blade 3, node 4), m
        183    1.368E+02                                 F               0         Z-component position of node 61 (blade 3, node 4), m
        184    1.365E+01                                 F               0         X-component position of node 62 (blade 3, node 5), m
        185   -3.686E+01                                 F               0         Y-component position of node 62 (blade 3, node 5), m
        186    1.351E+02                                 F               0         Z-component position of node 62 (blade 3, node 5), m
        187    1.330E+01                                 F               0         X-component position of node 63 (blade 3, node 6), m
        188   -4.031E+01                                 F               0         Y-component position of node 63 (blade 3, node 6), m
        189    1.334E+02                                 F               0         Z-component position of node 63 (blade 3, node 6), m
        190    1.295E+01                                 F               0         X-component position of node 64 (blade 3, node 7), m
        191   -4.376E+01                                 F               0         Y-component position of node 64 (blade 3, node 7), m
        192    1.317E+02                                 F               0         Z-component position of node 64 (blade 3, node 7), m
        193    1.260E+01                                 F               0         X-component position of node 65 (blade 3, node 8), m
        194   -4.721E+01                                 F               0         Y-component position of node 65 (blade 3, node 8), m
        195    1.300E+02                                 F               0         Z-component position of node 65 (blade 3, node 8), m
        196    1.225E+01                                 F               0         X-component position of node 66 (blade 3, node 9), m
        197   -5.066E+01                                 F               0         Y-component position of node 66 (blade 3, node 9), m
        198    1.282E+02                                 F               0         Z-component position of node 66 (blade 3, node 9), m
        199    1.190E+01                                 F               0         X-component position of node 67 (blade 3, node 10), m
        200   -5.411E+01                                 F               0         Y-component position of node 67 (blade 3, node 10), m
        201    1.265E+02                                 F               0         Z-component position of node 67 (blade 3, node 10), m
        202    1.156E+01                                 F               0         X-component position of node 68 (blade 3, node 11), m
        203   -5.756E+01                                 F               0         Y-component position of node 68 (blade 3, node 11), m
        204    1.248E+02                                 F               0         Z-component position of node 68 (blade 3, node 11), m
        205    1.121E+01                                 F               0         X-component position of node 69 (blade 3, node 12), m
        206   -6.101E+01                                 F               0         Y-component position of node 69 (blade 3, node 12), m
        207    1.231E+02                                 F               0         Z-component position of node 69 (blade 3, node 12), m
        208    1.086E+01                                 F               0         X-component position of node 70 (blade 3, node 13), m
        209   -6.446E+01                                 F               0         Y-component position of node 70 (blade 3, node 13), m
        210    1.214E+02                                 F               0         Z-component position of node 70 (blade 3, node 13), m
        211    1.051E+01                                 F               0         X-component position of node 71 (blade 3, node 14), m