
Linearized model: Predictions were generated on 13-Feb-2024 at 12:12:09 using OpenFAST, compiled as a 64-bit application using single precision at commit v3.5.1
 linked with  NWTC Subroutine Library; ElastoDyn; InflowWind; AeroDyn; ServoDyn; HydroDyn; MAP++ (<1.20.10>, <Oct-20-2023>)

Description from the FAST input file: CCT-9 Campign 4 model. Input files to be run with OpenFAST 3.5.0. GitHub branch from Lu Wang (https://github.com/luwang00/openfast/tree/dev) compiled on March 7, 2023.

Simulation information:
   Simulation time:                   774.8500 s
   Rotor Speed:                         0.7919 rad/s
   Azimuth:                             3.4958 rad
   Wind Speed:                         24.0000 m/s
   Number of continuous states:         0
   Number of discrete states:           0
   Number of constraint states:         0
   Number of inputs:                  303
   Number of outputs:                   1
   Jacobians included in this file?    No

Order of inputs:
     Column   Operating Point                                                   Rotating Frame? Derivative Order Description
   ---------- ---------------                                                   --------------- ---------------- -----------
          1    -1.08005075455E+001                                                     F               0         X-component position of node 1 (hub), m
          2     0.00000000000E+000                                                     F               0         Y-component position of node 1 (hub), m
          3     1.49740173340E+002                                                     F               0         Z-component position of node 1 (hub), m
          4     9.76000499725E+000                                                     F               0         X-component position of node 2 (blade 1, node 1), m
          5    -6.99308919907E+000                                                     F               0         Y-component position of node 2 (blade 1, node 1), m
          6     1.44788391113E+002                                                     F               0         Z-component position of node 2 (blade 1, node 1), m
          7     9.51038265228E+000                                                     F               0         X-component position of node 3 (blade 1, node 2), m
          8    -6.45789909363E+000                                                     F               0         Y-component position of node 3 (blade 1, node 2), m
          9     1.43591201782E+002                                                     F               0         Z-component position of node 3 (blade 1, node 2), m
         10     6.11596775055E+000                                                     F               0         X-component position of node 4 (blade 1, node 3), m
         11     8.19756805897E-001                                                     F               0         Y-component position of node 4 (blade 1, node 3), m
         12     1.27311668396E+002                                                     F               0         Z-component position of node 4 (blade 1, node 3), m
         13     5.39276885986E+000                                                     F               0         X-component position of node 5 (blade 1, node 4), m
         14     2.37030482292E+000                                                     F               0         Y-component position of node 5 (blade 1, node 4), m
         15     1.23843215942E+002                                                     F               0         Z-component position of node 5 (blade 1, node 4), m
         16     4.66943025589E+000                                                     F               0         X-component position of node 6 (blade 1, node 5), m
         17     3.92114734650E+000                                                     F               0         Y-component position of node 6 (blade 1, node 5), m
         18     1.20374099731E+002                                                     F               0         Z-component position of node 6 (blade 1, node 5), m
         19     3.94622778893E+000                                                     F               0         X-component position of node 7 (blade 1, node 6), m
         20     5.47170114517E+000                                                     F               0         Y-component position of node 7 (blade 1, node 6), m
         21     1.16905632019E+002                                                     F               0         Z-component position of node 7 (blade 1, node 6), m
         22     3.22302198410E+000                                                     F               0         X-component position of node 8 (blade 1, node 7), m
         23     7.02226018906E+000                                                     F               0         Y-component position of node 8 (blade 1, node 7), m
         24     1.13437156677E+002                                                     F               0         Z-component position of node 8 (blade 1, node 7), m
         25     2.49968671799E+000                                                     F               0         X-component position of node 9 (blade 1, node 8), m
         26     8.57309627533E+000                                                     F               0         Y-component position of node 9 (blade 1, node 8), m
         27     1.09968055725E+002                                                     F               0         Z-component position of node 9 (blade 1, node 8), m
         28     1.77648031712E+000                                                     F               0         X-component position of node 10 (blade 1, node 9), m
         29     1.01236562729E+001                                                     F               0         Y-component position of node 10 (blade 1, node 9), m
         30     1.06499580383E+002                                                     F               0         Z-component position of node 10 (blade 1, node 9), m
         31     1.05327773094E+000                                                     F               0         X-component position of node 11 (blade 1, node 10), m
         32     1.16742105484E+001                                                     F               0         Y-component position of node 11 (blade 1, node 10), m
         33     1.03031105042E+002                                                     F               0         Z-component position of node 11 (blade 1, node 10), m
         34     3.30071061850E-001                                                     F               0         X-component position of node 12 (blade 1, node 11), m
         35     1.32247695923E+001                                                     F               0         Y-component position of node 12 (blade 1, node 11), m
         36     9.95626296997E+001                                                     F               0         Z-component position of node 12 (blade 1, node 11), m
         37    -3.93258720636E-001                                                     F               0         X-component position of node 13 (blade 1, node 12), m
         38     1.47756013870E+001                                                     F               0         Y-component position of node 13 (blade 1, node 12), m
         39     9.60935440063E+001                                                     F               0         Z-component position of node 13 (blade 1, node 12), m
         40    -1.11646580696E+000                                                     F               0         X-component position of node 14 (blade 1, node 13), m
         41     1.63261604309E+001                                                     F               0         Y-component position of node 14 (blade 1, node 13), m
         42     9.26250610352E+001                                                     F               0         Z-component position of node 14 (blade 1, node 13), m
         43    -1.83966815472E+000                                                     F               0         X-component position of node 15 (blade 1, node 14), m
         44     1.78767147064E+001                                                     F               0         Y-component position of node 15 (blade 1, node 14), m
         45     8.91565933228E+001                                                     F               0         Z-component position of node 15 (blade 1, node 14), m
         46    -2.56300568581E+000                                                     F               0         X-component position of node 16 (blade 1, node 15), m
         47     1.94275550842E+001                                                     F               0         Y-component position of node 16 (blade 1, node 15), m
         48     8.56874923706E+001                                                     F               0         Z-component position of node 16 (blade 1, node 15), m
         49    -3.28620862961E+000                                                     F               0         X-component position of node 17 (blade 1, node 16), m
         50     2.09781093597E+001                                                     F               0         Y-component position of node 17 (blade 1, node 16), m
         51     8.22190170288E+001                                                     F               0         Z-component position of node 17 (blade 1, node 16), m
         52    -4.00941610336E+000                                                     F               0         X-component position of node 18 (blade 1, node 17), m
         53     2.25286712646E+001                                                     F               0         Y-component position of node 18 (blade 1, node 17), m
         54     7.87505340576E+001                                                     F               0         Z-component position of node 18 (blade 1, node 17), m
         55    -4.73261928558E+000                                                     F               0         X-component position of node 19 (blade 1, node 18), m
         56     2.40792255402E+001                                                     F               0         Y-component position of node 19 (blade 1, node 18), m
         57     7.52820663452E+001                                                     F               0         Z-component position of node 19 (blade 1, node 18), m
         58    -5.45595073700E+000                                                     F               0         X-component position of node 20 (blade 1, node 19), m
         59     2.56300563812E+001                                                     F               0         Y-component position of node 20 (blade 1, node 19), m
         60     7.18129806519E+001                                                     F               0         Z-component position of node 20 (blade 1, node 19), m
         61    -6.17915773392E+000                                                     F               0         X-component position of node 21 (blade 1, node 20), m
         62     2.71806163788E+001                                                     F               0         Y-component position of node 21 (blade 1, node 20), m
         63     6.83444976807E+001                                                     F               0         Z-component position of node 21 (blade 1, node 20), m
         64    -6.90236139297E+000                                                     F               0         X-component position of node 22 (blade 1, node 21), m
         65     2.87311725616E+001                                                     F               0         Y-component position of node 22 (blade 1, node 21), m
         66     6.48760223389E+001                                                     F               0         Z-component position of node 22 (blade 1, node 21), m
         67    -7.62569665909E+000                                                     F               0         X-component position of node 23 (blade 1, node 22), m
         68     3.02820110321E+001                                                     F               0         Y-component position of node 23 (blade 1, node 22), m
         69     6.14069252014E+001                                                     F               0         Z-component position of node 23 (blade 1, node 22), m
         70    -8.34890365601E+000                                                     F               0         X-component position of node 24 (blade 1, node 23), m
         71     3.18325691223E+001                                                     F               0         Y-component position of node 24 (blade 1, node 23), m
         72     5.79384498596E+001                                                     F               0         Z-component position of node 24 (blade 1, node 23), m
         73    -9.07210636139E+000                                                     F               0         X-component position of node 25 (blade 1, node 24), m
         74     3.33831253052E+001                                                     F               0         Y-component position of node 25 (blade 1, node 24), m
         75     5.44699745178E+001                                                     F               0         Z-component position of node 25 (blade 1, node 24), m
         76    -9.79531002045E+000                                                     F               0         X-component position of node 26 (blade 1, node 25), m
         77     3.49336814880E+001                                                     F               0         Y-component position of node 26 (blade 1, node 25), m
         78     5.10015068054E+001                                                     F               0         Z-component position of node 26 (blade 1, node 25), m
         79    -1.05186452866E+001                                                     F               0         X-component position of node 27 (blade 1, node 26), m
         80     3.64845199585E+001                                                     F               0         Y-component position of node 27 (blade 1, node 26), m
         81     4.75323982239E+001                                                     F               0         Z-component position of node 27 (blade 1, node 26), m
         82    -1.12418479919E+001                                                     F               0         X-component position of node 28 (blade 1, node 27), m
         83     3.80350723267E+001                                                     F               0         Y-component position of node 28 (blade 1, node 27), m
         84     4.40639419556E+001                                                     F               0         Z-component position of node 28 (blade 1, node 27), m
         85    -1.18549728394E+001                                                     F               0         X-component position of node 29 (blade 1, node 28), m
         86     3.93496131897E+001                                                     F               0         Y-component position of node 29 (blade 1, node 28), m
         87     4.11234092712E+001                                                     F               0         Z-component position of node 29 (blade 1, node 28), m
         88     1.17078361511E+001                                                     F               0         X-component position of node 30 (blade 2, node 1), m
         89    -5.92942094803E+000                                                     F               0         Y-component position of node 30 (blade 2, node 1), m
         90     1.54123764038E+002                                                     F               0         Z-component position of node 30 (blade 2, node 1), m
         91     1.19275588989E+001                                                     F               0         X-component position of node 31 (blade 2, node 2), m
         92    -5.13793373108E+000                                                     F               0         Y-component position of node 31 (blade 2, node 2), m
         93     1.55176010132E+002                                                     F               0         Z-component position of node 31 (blade 2, node 2), m
         94     1.49154243469E+001                                                     F               0         X-component position of node 32 (blade 2, node 3), m
         95     5.62493801117E+000                                                     F               0         Y-component position of node 32 (blade 2, node 3), m
         96     1.69484863281E+002                                                     F               0         Z-component position of node 32 (blade 2, node 3), m
         97     1.55520105362E+001                                                     F               0         X-component position of node 33 (blade 2, node 4), m
         98     7.91804361343E+000                                                     F               0         Y-component position of node 33 (blade 2, node 4), m
         99     1.72533462524E+002                                                     F               0         Z-component position of node 33 (blade 2, node 4), m
        100     1.61887111664E+001                                                     F               0         X-component position of node 34 (blade 2, node 5), m
        101     1.02115716934E+001                                                     F               0         Y-component position of node 34 (blade 2, node 5), m
        102     1.75582611084E+002                                                     F               0         Z-component position of node 34 (blade 2, node 5), m
        103     1.68252983093E+001                                                     F               0         X-component position of node 35 (blade 2, node 6), m
        104     1.25046768188E+001                                                     F               0         Y-component position of node 35 (blade 2, node 6), m
        105     1.78631210327E+002                                                     F               0         Z-component position of node 35 (blade 2, node 6), m
        106     1.74618854523E+001                                                     F               0         X-component position of node 36 (blade 2, node 7), m
        107     1.47977848053E+001                                                     F               0         Y-component position of node 36 (blade 2, node 7), m
        108     1.81679824829E+002                                                     F               0         Z-component position of node 36 (blade 2, node 7), m
        109     1.80985870361E+001                                                     F               0         X-component position of node 37 (blade 2, node 8), m
        110     1.70913105011E+001                                                     F               0         Y-component position of node 37 (blade 2, node 8), m
        111     1.84728958130E+002                                                     F               0         Z-component position of node 37 (blade 2, node 8), m
        112     1.87351722717E+001                                                     F               0         X-component position of node 38 (blade 2, node 9), m
        113     1.93844165802E+001                                                     F               0         Y-component position of node 38 (blade 2, node 9), m
        114     1.87777572632E+002                                                     F               0         Z-component position of node 38 (blade 2, node 9), m
        115     1.93717594147E+001                                                     F               0         X-component position of node 39 (blade 2, node 10), m
        116     2.16775264740E+001                                                     F               0         Y-component position of node 39 (blade 2, node 10), m
        117     1.90826171875E+002                                                     F               0         Z-component position of node 39 (blade 2, node 10), m
        118     2.00083465576E+001                                                     F               0         X-component position of node 40 (blade 2, node 11), m
        119     2.39706363678E+001                                                     F               0         Y-component position of node 40 (blade 2, node 11), m
        120     1.93874771118E+002                                                     F               0         Z-component position of node 40 (blade 2, node 11), m
        121     2.06450481415E+001                                                     F               0         X-component position of node 41 (blade 2, node 12), m
        122     2.62641639709E+001                                                     F               0         Y-component position of node 41 (blade 2, node 12), m
        123     1.96923919678E+002                                                     F               0         Z-component position of node 41 (blade 2, node 12), m
        124     2.12816333771E+001                                                     F               0         X-component position of node 42 (blade 2, node 13), m
        125     2.85572681427E+001                                                     F               0         Y-component position of node 42 (blade 2, node 13), m
        126     1.99972518921E+002                                                     F               0         Z-component position of node 42 (blade 2, node 13), m
        127     2.19182205200E+001                                                     F               0         X-component position of node 43 (blade 2, node 14), m
        128     3.08503799438E+001                                                     F               0         Y-component position of node 43 (blade 2, node 14), m
        129     2.03021118164E+002                                                     F               0         Z-component position of node 43 (blade 2, node 14), m
        130     2.25549221039E+001                                                     F               0         X-component position of node 44 (blade 2, node 15), m
        131     3.31439056396E+001                                                     F               0         Y-component position of node 44 (blade 2, node 15), m
        132     2.06070281982E+002                                                     F               0         Z-component position of node 44 (blade 2, node 15), m
        133     2.31915073395E+001                                                     F               0         X-component position of node 45 (blade 2, node 16), m
        134     3.54370079041E+001                                                     F               0         Y-component position of node 45 (blade 2, node 16), m
        135     2.09118881226E+002                                                     F               0         Z-component position of node 45 (blade 2, node 16), m
        136     2.38280925751E+001                                                     F               0         X-component position of node 46 (blade 2, node 17), m
        137     3.77301139832E+001                                                     F               0         Y-component position of node 46 (blade 2, node 17), m
        138     2.12167480469E+002                                                     F               0         Z-component position of node 46 (blade 2, node 17), m
        139     2.44646797180E+001                                                     F               0         X-component position of node 47 (blade 2, node 18), m
        140     4.00232238770E+001                                                     F               0         Y-component position of node 47 (blade 2, node 18), m
        141     2.15216079712E+002                                                     F               0         Z-component position of node 47 (blade 2, node 18), m
        142     2.51013813019E+001                                                     F               0         X-component position of node 48 (blade 2, node 19), m
        143     4.23167495728E+001                                                     F               0         Y-component position of node 48 (blade 2, node 19), m
        144     2.18265228271E+002                                                     F               0         Z-component position of node 48 (blade 2, node 19), m
        145     2.57379684448E+001                                                     F               0         X-component position of node 49 (blade 2, node 20), m
        146     4.46098556519E+001                                                     F               0         Y-component position of node 49 (blade 2, node 20), m
        147     2.21313827515E+002                                                     F               0         Z-component position of node 49 (blade 2, node 20), m
        148     2.63745555878E+001                                                     F               0         X-component position of node 50 (blade 2, node 21), m
        149     4.69029731750E+001                                                     F               0         Y-component position of node 50 (blade 2, node 21), m
        150     2.24362426758E+002                                                     F               0         Z-component position of node 50 (blade 2, node 21), m
        151     2.70112552643E+001                                                     F               0         X-component position of node 51 (blade 2, node 22), m
        152     4.91964912415E+001                                                     F               0         Y-component position of node 51 (blade 2, node 22), m
        153     2.27411590576E+002                                                     F               0         Z-component position of node 51 (blade 2, node 22), m
        154     2.76478424072E+001                                                     F               0         X-component position of node 52 (blade 2, node 23), m
        155     5.14895935059E+001                                                     F               0         Y-component position of node 52 (blade 2, node 23), m
        156     2.30460189819E+002                                                     F               0         Z-component position of node 52 (blade 2, node 23), m
        157     2.82844276428E+001                                                     F               0         X-component position of node 53 (blade 2, node 24), m
        158     5.37827072144E+001                                                     F               0         Y-component position of node 53 (blade 2, node 24), m
        159     2.33508789062E+002                                                     F               0         Z-component position of node 53 (blade 2, node 24), m
        160     2.89210147858E+001                                                     F               0         X-component position of node 54 (blade 2, node 25), m
        161     5.60758132935E+001                                                     F               0         Y-component position of node 54 (blade 2, node 25), m
        162     2.36557388306E+002                                                     F               0         Z-component position of node 54 (blade 2, node 25), m
        163     2.95577144623E+001                                                     F               0         X-component position of node 55 (blade 2, node 26), m
        164     5.83693389893E+001                                                     F               0         Y-component position of node 55 (blade 2, node 26), m
        165     2.39606552124E+002                                                     F               0         Z-component position of node 55 (blade 2, node 26), m
        166     3.01943016052E+001                                                     F               0         X-component position of node 56 (blade 2, node 27), m
        167     6.06624450684E+001                                                     F               0         Y-component position of node 56 (blade 2, node 27), m
        168     2.42655136108E+002                                                     F               0         Z-component position of node 56 (blade 2, node 27), m
        169     3.07339897156E+001                                                     F               0         X-component position of node 57 (blade 2, node 28), m
        170     6.26065025330E+001                                                     F               0         Y-component position of node 57 (blade 2, node 28), m
        171     2.45239685059E+002                                                     F               0         Z-component position of node 57 (blade 2, node 28), m
        172     1.09200344086E+001                                                     F               0         X-component position of node 58 (blade 3, node 1), m