
Linearized model: Predictions were generated on 12-Jan-2024 at 09:28:28 using OpenFAST, compiled as a 64-bit application using single precision at commit v3.5.1
 linked with  NWTC Subroutine Library; ElastoDyn; InflowWind; AeroDyn; ServoDyn; HydroDyn; MAP++ (<1.20.10>, <Oct-20-2023>)

Description from the FAST input file: CCT-9 Campign 4 model. Input files to be run with OpenFAST 3.5.0. GitHub branch from Lu Wang (https://github.com/luwang00/openfast/tree/dev) compiled on March 7, 2023.

Simulation information:
   Simulation time:                   504.7000 s
   Rotor Speed:                         0.8773 rad/s
   Azimuth:                             1.6952 rad
   Wind Speed:                         10.0000 m/s
   Number of continuous states:        22
   Number of discrete states:           0
   Number of constraint states:         0
   Number of inputs:                 3988
   Number of outputs:                  58
   Jacobians included in this file?    No

Order of continuous states:
   Row/Column Operating Point                     Rotating Frame? Derivative Order Description
   ---------- ---------------                     --------------- ---------------- -----------
          1    8.835E+00                                 F               2         ED Platform horizontal surge translation DOF (internal DOF index = DOF_Sg), m
          2   -3.614E-01                                 F               2         ED Platform horizontal sway translation DOF (internal DOF index = DOF_Sw), m
          3   -1.738E-01                                 F               2         ED Platform vertical heave translation DOF (internal DOF index = DOF_Hv), m
          4    4.803E-02                                 F               2         ED Platform roll tilt rotation DOF (internal DOF index = DOF_R), rad
          5    1.188E-01                                 F               2         ED Platform pitch tilt rotation DOF (internal DOF index = DOF_P), rad
          6    7.120E-03                                 F               2         ED Platform yaw rotation DOF (internal DOF index = DOF_Y), rad
          7    7.532E-01                                 F               2         ED 1st tower fore-aft bending mode DOF (internal DOF index = DOF_TFA1), m
          8    1.943E-01                                 F               2         ED 1st tower side-to-side bending mode DOF (internal DOF index = DOF_TSS1), m
          9    1.523E-03                                 F               2         ED 2nd tower fore-aft bending mode DOF (internal DOF index = DOF_TFA2), m
         10    8.403E-05                                 F               2         ED 2nd tower side-to-side bending mode DOF (internal DOF index = DOF_TSS2), m
         11    1.244E-01                                 F               2         ED Variable speed generator DOF (internal DOF index = DOF_GeAz), rad
         12   -4.459E-03                                 F               2         ED First time derivative of Platform horizontal surge translation DOF (internal DOF index = DOF_Sg), m/s
         13    1.886E-03                                 F               2         ED First time derivative of Platform horizontal sway translation DOF (internal DOF index = DOF_Sw), m/s
         14    3.942E-03                                 F               2         ED First time derivative of Platform vertical heave translation DOF (internal DOF index = DOF_Hv), m/s
         15   -9.272E-05                                 F               2         ED First time derivative of Platform roll tilt rotation DOF (internal DOF index = DOF_R), rad/s
         16   -2.374E-05                                 F               2         ED First time derivative of Platform pitch tilt rotation DOF (internal DOF index = DOF_P), rad/s
         17    8.429E-05                                 F               2         ED First time derivative of Platform yaw rotation DOF (internal DOF index = DOF_Y), rad/s
         18    2.130E-03                                 F               2         ED First time derivative of 1st tower fore-aft bending mode DOF (internal DOF index = DOF_TFA1), m/s
         19   -2.958E-03                                 F               2         ED First time derivative of 1st tower side-to-side bending mode DOF (internal DOF index = DOF_TSS1), m/s
         20    6.465E-07                                 F               2         ED First time derivative of 2nd tower fore-aft bending mode DOF (internal DOF index = DOF_TFA2), m/s
         21   -9.230E-07                                 F               2         ED First time derivative of 2nd tower side-to-side bending mode DOF (internal DOF index = DOF_TSS2), m/s
         22    8.773E-01                                 F               2         ED First time derivative of Variable speed generator DOF (internal DOF index = DOF_GeAz), rad/s

Order of continuous state derivatives:
   Row/Column Operating Point                     Rotating Frame? Derivative Order Description
   ---------- ---------------                     --------------- ---------------- -----------
          1   -4.459E-03                                 F               2         First time derivative of ED Platform horizontal surge translation DOF (internal DOF index = DOF_Sg), m/s
          2    1.886E-03                                 F               2         First time derivative of ED Platform horizontal sway translation DOF (internal DOF index = DOF_Sw), m/s
          3    3.942E-03                                 F               2         First time derivative of ED Platform vertical heave translation DOF (internal DOF index = DOF_Hv), m/s
          4   -9.272E-05                                 F               2         First time derivative of ED Platform roll tilt rotation DOF (internal DOF index = DOF_R), rad/s
          5   -2.374E-05                                 F               2         First time derivative of ED Platform pitch tilt rotation DOF (internal DOF index = DOF_P), rad/s
          6    8.429E-05                                 F               2         First time derivative of ED Platform yaw rotation DOF (internal DOF index = DOF_Y), rad/s
          7    2.130E-03                                 F               2         First time derivative of ED 1st tower fore-aft bending mode DOF (internal DOF index = DOF_TFA1), m/s
          8   -2.958E-03                                 F               2         First time derivative of ED 1st tower side-to-side bending mode DOF (internal DOF index = DOF_TSS1), m/s
          9    6.465E-07                                 F               2         First time derivative of ED 2nd tower fore-aft bending mode DOF (internal DOF index = DOF_TFA2), m/s
         10   -9.230E-07                                 F               2         First time derivative of ED 2nd tower side-to-side bending mode DOF (internal DOF index = DOF_TSS2), m/s
         11    8.773E-01                                 F               2         First time derivative of ED Variable speed generator DOF (internal DOF index = DOF_GeAz), rad/s
         12   -4.526E-04                                 F               2         First time derivative of ED First time derivative of Platform horizontal surge translation DOF (internal DOF index = DOF_Sg), m/s/s
         13   -8.915E-05                                 F               2         First time derivative of ED First time derivative of Platform horizontal sway translation DOF (internal DOF index = DOF_Sw), m/s/s
         14    1.095E-03                                 F               2         First time derivative of ED First time derivative of Platform vertical heave translation DOF (internal DOF index = DOF_Hv), m/s/s
         15   -1.390E-04                                 F               2         First time derivative of ED First time derivative of Platform roll tilt rotation DOF (internal DOF index = DOF_R), rad/s/s
         16   -1.632E-05                                 F               2         First time derivative of ED First time derivative of Platform pitch tilt rotation DOF (internal DOF index = DOF_P), rad/s/s
         17    3.064E-05                                 F               2         First time derivative of ED First time derivative of Platform yaw rotation DOF (internal DOF index = DOF_Y), rad/s/s
         18    5.598E-03                                 F               2         First time derivative of ED First time derivative of 1st tower fore-aft bending mode DOF (internal DOF index = DOF_TFA1), m/s/s
         19    4.814E-03                                 F               2         First time derivative of ED First time derivative of 1st tower side-to-side bending mode DOF (internal DOF index = DOF_TSS1), m/s/s
         20    6.001E-06                                 F               2         First time derivative of ED First time derivative of 2nd tower fore-aft bending mode DOF (internal DOF index = DOF_TFA2), m/s/s
         21   -2.813E-06                                 F               2         First time derivative of ED First time derivative of 2nd tower side-to-side bending mode DOF (internal DOF index = DOF_TSS2), m/s/s
         22    2.335E-04                                 F               2         First time derivative of ED First time derivative of Variable speed generator DOF (internal DOF index = DOF_GeAz), rad/s/s

Order of inputs:
     Column   Operating Point                     Rotating Frame? Derivative Order Description
   ---------- ---------------                     --------------- ---------------- -----------
          1   -1.080E+01                                 F               0         IfW X-component position of node 1 (hub), m
          2    0.000E+00                                 F               0         IfW Y-component position of node 1 (hub), m
          3    1.497E+02                                 F               0         IfW Z-component position of node 1 (hub), m
          4    1.648E+01                                 F               0         IfW X-component position of node 2 (blade 1, node 1), m
          5   -1.321E+01                                 F               0         IfW Y-component position of node 2 (blade 1, node 1), m
          6    1.487E+02                                 F               0         IfW Z-component position of node 2 (blade 1, node 1), m
          7    1.644E+01                                 F               0         IfW X-component position of node 3 (blade 1, node 2), m
          8   -1.452E+01                                 F               0         IfW Y-component position of node 3 (blade 1, node 2), m
          9    1.484E+02                                 F               0         IfW Z-component position of node 3 (blade 1, node 2), m
         10    1.600E+01                                 F               0         IfW X-component position of node 4 (blade 1, node 3), m
         11   -3.240E+01                                 F               0         IfW Y-component position of node 4 (blade 1, node 3), m
         12    1.453E+02                                 F               0         IfW Z-component position of node 4 (blade 1, node 3), m
         13    1.590E+01                                 F               0         IfW X-component position of node 5 (blade 1, node 4), m
         14   -3.621E+01                                 F               0         IfW Y-component position of node 5 (blade 1, node 4), m
         15    1.447E+02                                 F               0         IfW Z-component position of node 5 (blade 1, node 4), m
         16    1.581E+01                                 F               0         IfW X-component position of node 6 (blade 1, node 5), m
         17   -4.002E+01                                 F               0         IfW Y-component position of node 6 (blade 1, node 5), m
         18    1.440E+02                                 F               0         IfW Z-component position of node 6 (blade 1, node 5), m
         19    1.571E+01                                 F               0         IfW X-component position of node 7 (blade 1, node 6), m
         20   -4.383E+01                                 F               0         IfW Y-component position of node 7 (blade 1, node 6), m
         21    1.434E+02                                 F               0         IfW Z-component position of node 7 (blade 1, node 6), m
         22    1.562E+01                                 F               0         IfW X-component position of node 8 (blade 1, node 7), m
         23   -4.764E+01                                 F               0         IfW Y-component position of node 8 (blade 1, node 7), m
         24    1.427E+02                                 F               0         IfW Z-component position of node 8 (blade 1, node 7), m
         25    1.552E+01                                 F               0         IfW X-component position of node 9 (blade 1, node 8), m
         26   -5.145E+01                                 F               0         IfW Y-component position of node 9 (blade 1, node 8), m
         27    1.420E+02                                 F               0         IfW Z-component position of node 9 (blade 1, node 8), m
         28    1.543E+01                                 F               0         IfW X-component position of node 10 (blade 1, node 9), m
         29   -5.526E+01                                 F               0         IfW Y-component position of node 10 (blade 1, node 9), m
         30    1.414E+02                                 F               0         IfW Z-component position of node 10 (blade 1, node 9), m
         31    1.533E+01                                 F               0         IfW X-component position of node 11 (blade 1, node 10), m
         32   -5.907E+01                                 F               0         IfW Y-component position of node 11 (blade 1, node 10), m
         33    1.407E+02                                 F               0         IfW Z-component position of node 11 (blade 1, node 10), m
         34    1.524E+01                                 F               0         IfW X-component position of node 12 (blade 1, node 11), m
         35   -6.288E+01                                 F               0         IfW Y-component position of node 12 (blade 1, node 11), m
         36    1.401E+02                                 F               0         IfW Z-component position of node 12 (blade 1, node 11), m
         37    1.514E+01                                 F               0         IfW X-component position of node 13 (blade 1, node 12), m
         38   -6.669E+01                                 F               0         IfW Y-component position of node 13 (blade 1, node 12), m
         39    1.394E+02                                 F               0         IfW Z-component position of node 13 (blade 1, node 12), m
         40    1.505E+01                                 F               0         IfW X-component position of node 14 (blade 1, node 13), m
         41   -7.050E+01                                 F               0         IfW Y-component position of node 14 (blade 1, node 13), m
         42    1.387E+02                                 F               0         IfW Z-component position of node 14 (blade 1, node 13), m
         43    1.495E+01                                 F               0         IfW X-component position of node 15 (blade 1, node 14), m
         44   -7.431E+01                                 F               0         IfW Y-component position of node 15 (blade 1, node 14), m
         45    1.381E+02                                 F               0         IfW Z-component position of node 15 (blade 1, node 14), m
         46    1.486E+01                                 F               0         IfW X-component position of node 16 (blade 1, node 15), m
         47   -7.812E+01                                 F               0         IfW Y-component position of node 16 (blade 1, node 15), m
         48    1.374E+02                                 F               0         IfW Z-component position of node 16 (blade 1, node 15), m
         49    1.476E+01                                 F               0         IfW X-component position of node 17 (blade 1, node 16), m
         50   -8.193E+01                                 F               0         IfW Y-component position of node 17 (blade 1, node 16), m
         51    1.368E+02                                 F               0         IfW Z-component position of node 17 (blade 1, node 16), m
         52    1.467E+01                                 F               0         IfW X-component position of node 18 (blade 1, node 17), m
         53   -8.574E+01                                 F               0         IfW Y-component position of node 18 (blade 1, node 17), m
         54    1.361E+02                                 F               0         IfW Z-component position of node 18 (blade 1, node 17), m
         55    1.457E+01                                 F               0         IfW X-component position of node 19 (blade 1, node 18), m
         56   -8.955E+01                                 F               0         IfW Y-component position of node 19 (blade 1, node 18), m
         57    1.354E+02                                 F               0         IfW Z-component position of node 19 (blade 1, node 18), m
         58    1.448E+01                                 F               0         IfW X-component position of node 20 (blade 1, node 19), m
         59   -9.336E+01                                 F               0         IfW Y-component position of node 20 (blade 1, node 19), m
         60    1.348E+02                                 F               0         IfW Z-component position of node 20 (blade 1, node 19), m
         61    1.438E+01                                 F               0         IfW X-component position of node 21 (blade 1, node 20), m
         62   -9.717E+01                                 F               0         IfW Y-component position of node 21 (blade 1, node 20), m
         63    1.341E+02                                 F               0         IfW Z-component position of node 21 (blade 1, node 20), m
         64    1.429E+01                                 F               0         IfW X-component position of node 22 (blade 1, node 21), m
         65   -1.010E+02                                 F               0         IfW Y-component position of node 22 (blade 1, node 21), m
         66    1.335E+02                                 F               0         IfW Z-component position of node 22 (blade 1, node 21), m
         67    1.419E+01                                 F               0         IfW X-component position of node 23 (blade 1, node 22), m
         68   -1.048E+02                                 F               0         IfW Y-component position of node 23 (blade 1, node 22), m
         69    1.328E+02                                 F               0         IfW Z-component position of node 23 (blade 1, node 22), m
         70    1.410E+01                                 F               0         IfW X-component position of node 24 (blade 1, node 23), m
         71   -1.086E+02                                 F               0         IfW Y-component position of node 24 (blade 1, node 23), m
         72    1.321E+02                                 F               0         IfW Z-component position of node 24 (blade 1, node 23), m
         73    1.400E+01                                 F               0         IfW X-component position of node 25 (blade 1, node 24), m
         74   -1.124E+02                                 F               0         IfW Y-component position of node 25 (blade 1, node 24), m
         75    1.315E+02                                 F               0         IfW Z-component position of node 25 (blade 1, node 24), m
         76    1.391E+01                                 F               0         IfW X-component position of node 26 (blade 1, node 25), m
         77   -1.162E+02                                 F               0         IfW Y-component position of node 26 (blade 1, node 25), m
         78    1.308E+02                                 F               0         IfW Z-component position of node 26 (blade 1, node 25), m
         79    1.381E+01                                 F               0         IfW X-component position of node 27 (blade 1, node 26), m
         80   -1.200E+02                                 F               0         IfW Y-component position of node 27 (blade 1, node 26), m
         81    1.302E+02                                 F               0         IfW Z-component position of node 27 (blade 1, node 26), m
         82    1.372E+01                                 F               0         IfW X-component position of node 28 (blade 1, node 27), m
         83   -1.238E+02                                 F               0         IfW Y-component position of node 28 (blade 1, node 27), m
         84    1.295E+02                                 F               0         IfW Z-component position of node 28 (blade 1, node 27), m
         85    1.364E+01                                 F               0         IfW X-component position of node 29 (blade 1, node 28), m
         86   -1.271E+02                                 F               0         IfW Y-component position of node 29 (blade 1, node 28), m
         87    1.289E+02                                 F               0         IfW Z-component position of node 29 (blade 1, node 28), m
         88    1.559E+01                                 F               0         IfW X-component position of node 30 (blade 2, node 1), m
         89   -4.197E+00                                 F               0         IfW Y-component position of node 30 (blade 2, node 1), m
         90    1.455E+02                                 F               0         IfW Z-component position of node 30 (blade 2, node 1), m
         91    1.534E+01                                 F               0         IfW X-component position of node 31 (blade 2, node 2), m
         92   -3.341E+00                                 F               0         IfW Y-component position of node 31 (blade 2, node 2), m
         93    1.445E+02                                 F               0         IfW Z-component position of node 31 (blade 2, node 2), m
         94    1.197E+01                                 F               0         IfW X-component position of node 32 (blade 2, node 3), m
         95    8.299E+00                                 F               0         IfW Y-component position of node 32 (blade 2, node 3), m
         96    1.310E+02                                 F               0         IfW Z-component position of node 32 (blade 2, node 3), m
         97    1.125E+01                                 F               0         IfW X-component position of node 33 (blade 2, node 4), m
         98    1.078E+01                                 F               0         IfW Y-component position of node 33 (blade 2, node 4), m
         99    1.281E+02                                 F               0         IfW Z-component position of node 33 (blade 2, node 4), m
        100    1.053E+01                                 F               0         IfW X-component position of node 34 (blade 2, node 5), m
        101    1.326E+01                                 F               0         IfW Y-component position of node 34 (blade 2, node 5), m
        102    1.252E+02                                 F               0         IfW Z-component position of node 34 (blade 2, node 5), m
        103    9.815E+00                                 F               0         IfW X-component position of node 35 (blade 2, node 6), m
        104    1.574E+01                                 F               0         IfW Y-component position of node 35 (blade 2, node 6), m
        105    1.223E+02                                 F               0         IfW Z-component position of node 35 (blade 2, node 6), m
        106    9.097E+00                                 F               0         IfW X-component position of node 36 (blade 2, node 7), m
        107    1.822E+01                                 F               0         IfW Y-component position of node 36 (blade 2, node 7), m
        108    1.195E+02                                 F               0         IfW Z-component position of node 36 (blade 2, node 7), m
        109    8.379E+00                                 F               0         IfW X-component position of node 37 (blade 2, node 8), m
        110    2.070E+01                                 F               0         IfW Y-component position of node 37 (blade 2, node 8), m
        111    1.166E+02                                 F               0         IfW Z-component position of node 37 (blade 2, node 8), m
        112    7.662E+00                                 F               0         IfW X-component position of node 38 (blade 2, node 9), m
        113    2.318E+01                                 F               0         IfW Y-component position of node 38 (blade 2, node 9), m
        114    1.137E+02                                 F               0         IfW Z-component position of node 38 (blade 2, node 9), m
        115    6.944E+00                                 F               0         IfW X-component position of node 39 (blade 2, node 10), m
        116    2.566E+01                                 F               0         IfW Y-component position of node 39 (blade 2, node 10), m
        117    1.108E+02                                 F               0         IfW Z-component position of node 39 (blade 2, node 10), m
        118    6.226E+00                                 F               0         IfW X-component position of node 40 (blade 2, node 11), m
        119    2.814E+01                                 F               0         IfW Y-component position of node 40 (blade 2, node 11), m
        120    1.079E+02                                 F               0         IfW Z-component position of node 40 (blade 2, node 11), m
        121    5.508E+00                                 F               0         IfW X-component position of node 41 (blade 2, node 12), m
        122    3.062E+01                                 F               0         IfW Y-component position of node 41 (blade 2, node 12), m
        123    1.051E+02                                 F               0         IfW Z-component position of node 41 (blade 2, node 12), m
        124    4.790E+00                                 F               0         IfW X-component position of node 42 (blade 2, node 13), m
        125    3.310E+01                                 F               0         IfW Y-component position of node 42 (blade 2, node 13), m
        126    1.022E+02                                 F               0         IfW Z-component position of node 42 (blade 2, node 13), m
        127    4.073E+00                                 F               0         IfW X-component position of node 43 (blade 2, node 14), m
        128    3.558E+01                                 F               0         IfW Y-component position of node 43 (blade 2, node 14), m
        129    9.929E+01                                 F               0         IfW Z-component position of node 43 (blade 2, node 14), m
        130    3.355E+00                                 F               0         IfW X-component position of node 44 (blade 2, node 15), m
        131    3.806E+01                                 F               0         IfW Y-component position of node 44 (blade 2, node 15), m
        132    9.641E+01                                 F               0         IfW Z-component position of node 44 (blade 2, node 15), m
        133    2.637E+00                                 F               0         IfW X-component position of node 45 (blade 2, node 16), m
        134    4.054E+01                                 F               0         IfW Y-component position of node 45 (blade 2, node 16), m
        135    9.353E+01                                 F               0         IfW Z-component position of node 45 (blade 2, node 16), m
        136    1.919E+00                                 F               0         IfW X-component position of node 46 (blade 2, node 17), m
        137    4.302E+01                                 F               0         IfW Y-component position of node 46 (blade 2, node 17), m
        138    9.065E+01                                 F               0         IfW Z-component position of node 46 (blade 2, node 17), m
        139    1.201E+00                                 F               0         IfW X-component position of node 47 (blade 2, node 18), m
        140    4.550E+01                                 F               0         IfW Y-component position of node 47 (blade 2, node 18), m
        141    8.777E+01                                 F               0         IfW Z-component position of node 47 (blade 2, node 18), m
        142    4.836E-01                                 F               0         IfW X-component position of node 48 (blade 2, node 19), m
        143    4.798E+01                                 F               0         IfW Y-component position of node 48 (blade 2, node 19), m
        144    8.489E+01                                 F               0         IfW Z-component position of node 48 (blade 2, node 19), m