
Linearized model: Predictions were generated on 06-Feb-2024 at 10:15:48 using OpenFAST, compiled as a 64-bit application using single precision at commit v3.5.1
 linked with  NWTC Subroutine Library; ElastoDyn; InflowWind; AeroDyn; ServoDyn; HydroDyn; MAP++ (<1.20.10>, <Oct-20-2023>)

Description from the FAST input file: CCT-9 Campign 4 model. Input files to be run with OpenFAST 3.5.0. GitHub branch from Lu Wang (https://github.com/luwang00/openfast/tree/dev) compiled on March 7, 2023.

Simulation information:
   Simulation time:                  1000.0000 s
   Rotor Speed:                         1.0387 rad/s
   Azimuth:                             1.0500 rad
   Wind Speed:                         12.0000 m/s
   Number of continuous states:         0
   Number of discrete states:           0
   Number of constraint states:         0
   Number of inputs:                 1746
   Number of outputs:                   4
   Jacobians included in this file?    No

Order of inputs:
     Column   Operating Point                     Rotating Frame? Derivative Order Description
   ---------- ---------------                     --------------- ---------------- -----------
          1    1.515E+01                                 F               0         Tower X translation displacement, node 1, m
          2   -9.955E-01                                 F               0         Tower Y translation displacement, node 1, m
          3   -4.947E-01                                 F               0         Tower Z translation displacement, node 1, m
          4    1.708E+01                                 F               0         Tower X translation displacement, node 2, m
          5   -1.520E+00                                 F               0         Tower Y translation displacement, node 2, m
          6   -6.582E-01                                 F               0         Tower Z translation displacement, node 2, m
          7    1.905E+01                                 F               0         Tower X translation displacement, node 3, m
          8   -2.049E+00                                 F               0         Tower Y translation displacement, node 3, m
          9   -8.273E-01                                 F               0         Tower Z translation displacement, node 3, m
         10    2.104E+01                                 F               0         Tower X translation displacement, node 4, m
         11   -2.582E+00                                 F               0         Tower Y translation displacement, node 4, m
         12   -1.001E+00                                 F               0         Tower Z translation displacement, node 4, m
         13    2.306E+01                                 F               0         Tower X translation displacement, node 5, m
         14   -3.118E+00                                 F               0         Tower Y translation displacement, node 5, m
         15   -1.178E+00                                 F               0         Tower Z translation displacement, node 5, m
         16    2.509E+01                                 F               0         Tower X translation displacement, node 6, m
         17   -3.657E+00                                 F               0         Tower Y translation displacement, node 6, m
         18   -1.359E+00                                 F               0         Tower Z translation displacement, node 6, m
         19    2.714E+01                                 F               0         Tower X translation displacement, node 7, m
         20   -4.198E+00                                 F               0         Tower Y translation displacement, node 7, m
         21   -1.542E+00                                 F               0         Tower Z translation displacement, node 7, m
         22    2.920E+01                                 F               0         Tower X translation displacement, node 8, m
         23   -4.740E+00                                 F               0         Tower Y translation displacement, node 8, m
         24   -1.727E+00                                 F               0         Tower Z translation displacement, node 8, m
         25    3.127E+01                                 F               0         Tower X translation displacement, node 9, m
         26   -5.284E+00                                 F               0         Tower Y translation displacement, node 9, m
         27   -1.913E+00                                 F               0         Tower Z translation displacement, node 9, m
         28    3.334E+01                                 F               0         Tower X translation displacement, node 10, m
         29   -5.829E+00                                 F               0         Tower Y translation displacement, node 10, m
         30   -2.100E+00                                 F               0         Tower Z translation displacement, node 10, m
         31    3.542E+01                                 F               0         Tower X translation displacement, node 11, m
         32   -6.375E+00                                 F               0         Tower Y translation displacement, node 11, m
         33   -2.288E+00                                 F               0         Tower Z translation displacement, node 11, m
         34    9.878E-01,  1.469E-02, -1.549E-01         F               0         Tower X orientation angle, node 1, rad
         35   -7.951E-03,  9.990E-01,  4.407E-02         F               0         Tower Y orientation angle, node 1, rad
         36    1.554E-01, -4.230E-02,  9.870E-01         F               0         Tower Z orientation angle, node 1, rad
         37    9.874E-01,  1.481E-02, -1.575E-01         F               0         Tower X orientation angle, node 2, rad
         38   -7.889E-03,  9.990E-01,  4.446E-02         F               0         Tower Y orientation angle, node 2, rad
         39    1.580E-01, -4.265E-02,  9.865E-01         F               0         Tower Z orientation angle, node 2, rad
         40    9.870E-01,  1.491E-02, -1.598E-01         F               0         Tower X orientation angle, node 3, rad
         41   -7.832E-03,  9.990E-01,  4.481E-02         F               0         Tower Y orientation angle, node 3, rad
         42    1.603E-01, -4.297E-02,  9.861E-01         F               0         Tower Z orientation angle, node 3, rad
         43    9.867E-01,  1.499E-02, -1.617E-01         F               0         Tower X orientation angle, node 4, rad
         44   -7.782E-03,  9.990E-01,  4.511E-02         F               0         Tower Y orientation angle, node 4, rad
         45    1.623E-01, -4.325E-02,  9.858E-01         F               0         Tower Z orientation angle, node 4, rad
         46    9.864E-01,  1.506E-02, -1.634E-01         F               0         Tower X orientation angle, node 5, rad
         47   -7.739E-03,  9.989E-01,  4.537E-02         F               0         Tower Y orientation angle, node 5, rad
         48    1.639E-01, -4.349E-02,  9.855E-01         F               0         Tower Z orientation angle, node 5, rad
         49    9.862E-01,  1.512E-02, -1.647E-01         F               0         Tower X orientation angle, node 6, rad
         50   -7.703E-03,  9.989E-01,  4.559E-02         F               0         Tower Y orientation angle, node 6, rad
         51    1.652E-01, -4.370E-02,  9.853E-01         F               0         Tower Z orientation angle, node 6, rad
         52    9.861E-01,  1.517E-02, -1.658E-01         F               0         Tower X orientation angle, node 7, rad
         53   -7.673E-03,  9.989E-01,  4.577E-02         F               0         Tower Y orientation angle, node 7, rad
         54    1.663E-01, -4.386E-02,  9.851E-01         F               0         Tower Z orientation angle, node 7, rad
         55    9.859E-01,  1.520E-02, -1.665E-01         F               0         Tower X orientation angle, node 8, rad
         56   -7.650E-03,  9.989E-01,  4.591E-02         F               0         Tower Y orientation angle, node 8, rad
         57    1.670E-01, -4.399E-02,  9.850E-01         F               0         Tower Z orientation angle, node 8, rad
         58    9.858E-01,  1.523E-02, -1.671E-01         F               0         Tower X orientation angle, node 9, rad
         59   -7.633E-03,  9.989E-01,  4.601E-02         F               0         Tower Y orientation angle, node 9, rad
         60    1.676E-01, -4.408E-02,  9.849E-01         F               0         Tower Z orientation angle, node 9, rad
         61    9.858E-01,  1.524E-02, -1.674E-01         F               0         Tower X orientation angle, node 10, rad
         62   -7.622E-03,  9.989E-01,  4.607E-02         F               0         Tower Y orientation angle, node 10, rad
         63    1.679E-01, -4.414E-02,  9.848E-01         F               0         Tower Z orientation angle, node 10, rad
         64    9.857E-01,  1.525E-02, -1.676E-01         F               0         Tower X orientation angle, node 11, rad
         65   -7.616E-03,  9.989E-01,  4.611E-02         F               0         Tower Y orientation angle, node 11, rad
         66    1.681E-01, -4.417E-02,  9.848E-01         F               0         Tower Z orientation angle, node 11, rad
         67   -1.848E-03                                 F               0         Tower X translation velocity, node 1, m/s
         68   -3.699E-02                                 F               0         Tower Y translation velocity, node 1, m/s
         69   -5.772E-03                                 F               0         Tower Z translation velocity, node 1, m/s
         70   -2.239E-03                                 F               0         Tower X translation velocity, node 2, m/s
         71   -6.284E-02                                 F               0         Tower Y translation velocity, node 2, m/s
         72   -6.821E-03                                 F               0         Tower Z translation velocity, node 2, m/s
         73   -2.702E-03                                 F               0         Tower X translation velocity, node 3, m/s
         74   -8.913E-02                                 F               0         Tower Y translation velocity, node 3, m/s
         75   -7.888E-03                                 F               0         Tower Z translation velocity, node 3, m/s
         76   -3.215E-03                                 F               0         Tower X translation velocity, node 4, m/s
         77   -1.158E-01                                 F               0         Tower Y translation velocity, node 4, m/s
         78   -8.970E-03                                 F               0         Tower Z translation velocity, node 4, m/s
         79   -3.765E-03                                 F               0         Tower X translation velocity, node 5, m/s
         80   -1.427E-01                                 F               0         Tower Y translation velocity, node 5, m/s
         81   -1.007E-02                                 F               0         Tower Z translation velocity, node 5, m/s
         82   -4.343E-03                                 F               0         Tower X translation velocity, node 6, m/s
         83   -1.700E-01                                 F               0         Tower Y translation velocity, node 6, m/s
         84   -1.117E-02                                 F               0         Tower Z translation velocity, node 6, m/s
         85   -4.938E-03                                 F               0         Tower X translation velocity, node 7, m/s
         86   -1.974E-01                                 F               0         Tower Y translation velocity, node 7, m/s
         87   -1.229E-02                                 F               0         Tower Z translation velocity, node 7, m/s
         88   -5.543E-03                                 F               0         Tower X translation velocity, node 8, m/s
         89   -2.250E-01                                 F               0         Tower Y translation velocity, node 8, m/s
         90   -1.342E-02                                 F               0         Tower Z translation velocity, node 8, m/s
         91   -6.154E-03                                 F               0         Tower X translation velocity, node 9, m/s
         92   -2.527E-01                                 F               0         Tower Y translation velocity, node 9, m/s
         93   -1.456E-02                                 F               0         Tower Z translation velocity, node 9, m/s
         94   -6.766E-03                                 F               0         Tower X translation velocity, node 10, m/s
         95   -2.806E-01                                 F               0         Tower Y translation velocity, node 10, m/s
         96   -1.570E-02                                 F               0         Tower Z translation velocity, node 10, m/s
         97   -7.377E-03                                 F               0         Tower X translation velocity, node 11, m/s
         98   -3.085E-01                                 F               0         Tower Y translation velocity, node 11, m/s
         99   -1.685E-02                                 F               0         Tower Z translation velocity, node 11, m/s
        100    3.689E+01                                 F               0         Hub X translation displacement, node 1, m
        101   -6.887E+00                                 F               0         Hub Y translation displacement, node 1, m
        102   -5.979E-01                                 F               0         Hub Z translation displacement, node 1, m
        103    9.628E-01,  1.978E-02, -2.696E-01         F               0         Hub X orientation angle, node 1, rad
        104    2.306E-01,  4.603E-01,  8.573E-01         F               0         Hub Y orientation angle, node 1, rad
        105    1.411E-01, -8.875E-01,  4.386E-01         F               0         Hub Z orientation angle, node 1, rad
        106    1.002E+00                                 F               0         Hub X rotation velocity, node 1, rad/s
        107    2.053E-02                                 F               0         Hub Y rotation velocity, node 1, rad/s
        108   -2.807E-01                                 F               0         Hub Z rotation velocity, node 1, rad/s
        109    9.555E-01,  6.121E-03, -2.949E-01         F               0         Blade root 1 X orientation angle, node 1, rad
        110    2.591E-01,  4.607E-01,  8.489E-01         F               0         Blade root 1 Y orientation angle, node 1, rad
        111    1.411E-01, -8.875E-01,  4.386E-01         F               0         Blade root 1 Z orientation angle, node 1, rad
        112    9.621E-01,  4.941E-02, -2.680E-01         F               0         Blade root 2 X orientation angle, node 1, rad
        113    3.541E-02, -9.978E-01, -5.680E-02         F               0         Blade root 2 Y orientation angle, node 1, rad
        114   -2.702E-01,  4.515E-02, -9.617E-01         F               0         Blade root 2 Z orientation angle, node 1, rad
        115    9.694E-01,  3.801E-03, -2.455E-01         F               0         Blade root 3 X orientation angle, node 1, rad
        116   -2.088E-01,  5.388E-01, -8.161E-01         F               0         Blade root 3 Y orientation angle, node 1, rad
        117    1.292E-01,  8.424E-01,  5.231E-01         F               0         Blade root 3 Z orientation angle, node 1, rad
        118    3.709E+01                                 F               0         Blade 1 X translation displacement, node 1, m
        119   -1.180E+01                                 F               0         Blade 1 Y translation displacement, node 1, m
        120   -3.678E+00                                 F               0         Blade 1 Z translation displacement, node 1, m
        121    3.714E+01                                 F               0         Blade 1 X translation displacement, node 2, m
        122   -1.299E+01                                 F               0         Blade 1 Y translation displacement, node 2, m
        123   -4.420E+00                                 F               0         Blade 1 Z translation displacement, node 2, m
        124    3.781E+01                                 F               0         Blade 1 X translation displacement, node 3, m
        125   -2.910E+01                                 F               0         Blade 1 Y translation displacement, node 3, m
        126   -1.451E+01                                 F               0         Blade 1 Z translation displacement, node 3, m
        127    3.795E+01                                 F               0         Blade 1 X translation displacement, node 4, m
        128   -3.253E+01                                 F               0         Blade 1 Y translation displacement, node 4, m
        129   -1.666E+01                                 F               0         Blade 1 Z translation displacement, node 4, m
        130    3.809E+01                                 F               0         Blade 1 X translation displacement, node 5, m
        131   -3.597E+01                                 F               0         Blade 1 Y translation displacement, node 5, m
        132   -1.881E+01                                 F               0         Blade 1 Z translation displacement, node 5, m
        133    3.823E+01                                 F               0         Blade 1 X translation displacement, node 6, m
        134   -3.940E+01                                 F               0         Blade 1 Y translation displacement, node 6, m
        135   -2.096E+01                                 F               0         Blade 1 Z translation displacement, node 6, m
        136    3.837E+01                                 F               0         Blade 1 X translation displacement, node 7, m
        137   -4.283E+01                                 F               0         Blade 1 Y translation displacement, node 7, m
        138   -2.311E+01                                 F               0         Blade 1 Z translation displacement, node 7, m
        139    3.851E+01                                 F               0         Blade 1 X translation displacement, node 8, m
        140   -4.626E+01                                 F               0         Blade 1 Y translation displacement, node 8, m
        141   -2.526E+01                                 F               0         Blade 1 Z translation displacement, node 8, m
        142    3.865E+01                                 F               0         Blade 1 X translation displacement, node 9, m
        143   -4.970E+01                                 F               0         Blade 1 Y translation displacement, node 9, m
        144   -2.741E+01                                 F               0         Blade 1 Z translation displacement, node 9, m
        145    3.880E+01                                 F               0         Blade 1 X translation displacement, node 10, m
        146   -5.313E+01                                 F               0         Blade 1 Y translation displacement, node 10, m
        147   -2.956E+01                                 F               0         Blade 1 Z translation displacement, node 10, m
        148    3.894E+01                                 F               0         Blade 1 X translation displacement, node 11, m
        149   -5.656E+01                                 F               0         Blade 1 Y translation displacement, node 11, m
        150   -3.171E+01                                 F               0         Blade 1 Z translation displacement, node 11, m
        151    3.908E+01                                 F               0         Blade 1 X translation displacement, node 12, m
        152   -5.999E+01                                 F               0         Blade 1 Y translation displacement, node 12, m
        153   -3.386E+01                                 F               0         Blade 1 Z translation displacement, node 12, m
        154    3.922E+01                                 F               0         Blade 1 X translation displacement, node 13, m
        155   -6.343E+01                                 F               0         Blade 1 Y translation displacement, node 13, m
        156   -3.601E+01                                 F               0         Blade 1 Z translation displacement, node 13, m
        157    3.936E+01                                 F               0         Blade 1 X translation displacement, node 14, m
        158   -6.686E+01                                 F               0         Blade 1 Y translation displacement, node 14, m
        159   -3.816E+01                                 F               0         Blade 1 Z translation displacement, node 14, m
        160    3.950E+01                                 F               0         Blade 1 X translation displacement, node 15, m
        161   -7.029E+01                                 F               0         Blade 1 Y translation displacement, node 15, m
        162   -4.031E+01                                 F               0         Blade 1 Z translation displacement, node 15, m
        163    3.964E+01                                 F               0         Blade 1 X translation displacement, node 16, m
        164   -7.373E+01                                 F               0         Blade 1 Y translation displacement, node 16, m
        165   -4.246E+01                                 F               0         Blade 1 Z translation displacement, node 16, m
        166    3.978E+01                                 F               0         Blade 1 X translation displacement, node 17, m
        167   -7.716E+01                                 F               0         Blade 1 Y translation displacement, node 17, m
        168   -4.461E+01                                 F               0         Blade 1 Z translation displacement, node 17, m
        169    3.993E+01                                 F               0         Blade 1 X translation displacement, node 18, m
        170   -8.059E+01                                 F               0         Blade 1 Y translation displacement, node 18, m
        171   -4.676E+01                                 F               0         Blade 1 Z translation displacement, node 18, m
        172    4.007E+01                                 F               0         Blade 1 X translation displacement, node 19, m
        173   -8.402E+01                                 F               0         Blade 1 Y translation displacement, node 19, m
        174   -4.891E+01                                 F               0         Blade 1 Z translation displacement, node 19, m
        175    4.021E+01                                 F               0         Blade 1 X translation displacement, node 20, m
        176   -8.746E+01                                 F               0         Blade 1 Y translation displacement, node 20, m
        177   -5.106E+01                                 F               0         Blade 1 Z translation displacement, node 20, m
        178    4.035E+01                                 F               0         Blade 1 X translation displacement, node 21, m
        179   -9.089E+01                                 F               0         Blade 1 Y translation displacement, node 21, m
        180   -5.321E+01                                 F               0         Blade 1 Z translation displacement, node 21, m
        181    4.049E+01                                 F               0         Blade 1 X translation displacement, node 22, m
        182   -9.432E+01                                 F               0         Blade 1 Y translation displacement, node 22, m
        183   -5.537E+01                                 F               0         Blade 1 Z translation displacement, node 22, m
        184    4.063E+01                                 F               0         Blade 1 X translation displacement, node 23, m
        185   -9.776E+01                                 F               0         Blade 1 Y translation displacement, node 23, m
        186   -5.752E+01                                 F               0         Blade 1 Z translation displacement, node 23, m
        187    4.077E+01                                 F               0         Blade 1 X translation displacement, node 24, m
        188   -1.012E+02                                 F               0         Blade 1 Y translation displacement, node 24, m
        189   -5.967E+01                                 F               0         Blade 1 Z translation displacement, node 24, m
        190    4.091E+01                                 F               0         Blade 1 X translation displacement, node 25, m
        191   -1.046E+02                                 F               0         Blade 1 Y translation displacement, node 25, m
        192   -6.182E+01                                 F               0         Blade 1 Z translation displacement, node 25, m
        193    4.106E+01                                 F               0         Blade 1 X translation displacement, node 26, m
        194   -1.081E+02                                 F               0         Blade 1 Y translation displacement, node 26, m
        195   -6.397E+01                                 F               0         Blade 1 Z translation displacement, node 26, m
        196    4.120E+01                                 F               0         Blade 1 X translation displacement, node 27, m
        197   -1.115E+02                                 F               0         Blade 1 Y translation displacement, node 27, m
        198   -6.612E+01                                 F               0         Blade 1 Z translation displacement, node 27, m
        199    4.132E+01                                 F               0         Blade 1 X translation displacement, node 28, m
        200   -1.144E+02                                 F               0         Blade 1 Y translation displacement, node 28, m
        201   -6.794E+01                                 F               0         Blade 1 Z translation displacement, node 28, m
        202    7.322E-01, -2.046E-01, -6.496E-01         F               0         Blade 1 X orientation angle, node 1, rad
        203    6.663E-01,  4.128E-01,  6.210E-01         F               0         Blade 1 Y orientation angle, node 1, rad
        204    1.411E-01, -8.875E-01,  4.386E-01         F               0         Blade 1 Z orientation angle, node 1, rad
        205    7.322E-01, -2.046E-01, -6.496E-01         F               0         Blade 1 X orientation angle, node 2, rad
        206    6.663E-01,  4.128E-01,  6.210E-01         F               0         Blade 1 Y orientation angle, node 2, rad
        207    1.411E-01, -8.875E-01,  4.386E-01         F               0         Blade 1 Z orientation angle, node 2, rad
        208    8.693E-01, -1.010E-01, -4.839E-01         F               0         Blade 1 X orientation angle, node 3, rad
        209    4.738E-01,  4.495E-01,  7.573E-01         F               0         Blade 1 Y orientation angle, node 3, rad
        210    1.411E-01, -8.875E-01,  4.386E-01         F               0         Blade 1 Z orientation angle, node 3, rad
        211    8.885E-01, -8.189E-02, -4.515E-01         F               0         Blade 1 X orientation angle, node 4, rad
        212    4.366E-01,  4.534E-01,  7.770E-01         F               0         Blade 1 Y orientation angle, node 4, rad
        213    1.411E-01, -8.875E-01,  4.386E-01         F               0         Blade 1 Z orientation angle, node 4, rad
        214    9.025E-01, -6.681E-02, -4.255E-01         F               0         Blade 1 X orientation angle, node 5, rad
        215    4.069E-01,  4.558E-01,  7.916E-01         F               0         Blade 1 Y orientation angle, node 5, rad
        216    1.411E-01, -8.875E-01,  4.386E-01         F               0         Blade 1 Z orientation angle, node 5, rad
        217    9.130E-01, -5.470E-02, -4.043E-01         F               0         Blade 1 X orientation angle, node 6, rad
        218    3.828E-01,  4.575E-01,  8.026E-01         F               0         Blade 1 Y orientation angle, node 6, rad
        219    1.411E-01, -8.875E-01,  4.386E-01         F               0         Blade 1 Z orientation angle, node 6, rad
        220    9.211E-01, -4.471E-02, -3.867E-01         F               0         Blade 1 X orientation angle, node 7, rad
        221    3.628E-01,  4.585E-01,  8.112E-01         F               0         Blade 1 Y orientation angle, node 7, rad
        222    1.411E-01, -8.875E-01,  4.386E-01         F               0         Blade 1 Z orientation angle, node 7, rad
        223    9.275E-01, -3.638E-02, -3.719E-01         F               0         Blade 1 X orientation angle, node 8, rad
        224    3.461E-01,  4.593E-01,  8.181E-01         F               0         Blade 1 Y orientation angle, node 8, rad
        225    1.411E-01, -8.875E-01,  4.386E-01         F               0         Blade 1 Z orientation angle, node 8, rad
        226    9.328E-01, -2.932E-02, -3.593E-01         F               0         Blade 1 X orientation angle, node 9, rad
        227    3.318E-01,  4.598E-01,  8.237E-01         F               0         Blade 1 Y orientation angle, node 9, rad