
Linearized model: Predictions were generated on 12-Jan-2024 at 09:28:28 using OpenFAST, compiled as a 64-bit application using single precision at commit v3.5.1
 linked with  NWTC Subroutine Library; ElastoDyn; InflowWind; AeroDyn; ServoDyn; HydroDyn; MAP++ (<1.20.10>, <Oct-20-2023>)

Description from the FAST input file: CCT-9 Campign 4 model. Input files to be run with OpenFAST 3.5.0. GitHub branch from Lu Wang (https://github.com/luwang00/openfast/tree/dev) compiled on March 7, 2023.

Simulation information:
   Simulation time:                   504.9500 s
   Rotor Speed:                         0.8774 rad/s
   Azimuth:                             1.9145 rad
   Wind Speed:                         10.0000 m/s
   Number of continuous states:         0
   Number of discrete states:           0
   Number of constraint states:         0
   Number of inputs:                  303
   Number of outputs:                   1
   Jacobians included in this file?    No

Order of inputs:
     Column   Operating Point                     Rotating Frame? Derivative Order Description
   ---------- ---------------                     --------------- ---------------- -----------
          1   -1.080E+01                                 F               0         X-component position of node 1 (hub), m
          2    0.000E+00                                 F               0         Y-component position of node 1 (hub), m
          3    1.497E+02                                 F               0         Z-component position of node 1 (hub), m
          4    1.620E+01                                 F               0         X-component position of node 2 (blade 1, node 1), m
          5   -1.286E+01                                 F               0         Y-component position of node 2 (blade 1, node 1), m
          6    1.475E+02                                 F               0         Z-component position of node 2 (blade 1, node 1), m
          7    1.611E+01                                 F               0         X-component position of node 3 (blade 1, node 2), m
          8   -1.410E+01                                 F               0         Y-component position of node 3 (blade 1, node 2), m
          9    1.470E+02                                 F               0         Z-component position of node 3 (blade 1, node 2), m
         10    1.477E+01                                 F               0         X-component position of node 4 (blade 1, node 3), m
         11   -3.087E+01                                 F               0         Y-component position of node 4 (blade 1, node 3), m
         12    1.402E+02                                 F               0         Z-component position of node 4 (blade 1, node 3), m
         13    1.448E+01                                 F               0         X-component position of node 5 (blade 1, node 4), m
         14   -3.445E+01                                 F               0         Y-component position of node 5 (blade 1, node 4), m
         15    1.388E+02                                 F               0         Z-component position of node 5 (blade 1, node 4), m
         16    1.420E+01                                 F               0         X-component position of node 6 (blade 1, node 5), m
         17   -3.802E+01                                 F               0         Y-component position of node 6 (blade 1, node 5), m
         18    1.373E+02                                 F               0         Z-component position of node 6 (blade 1, node 5), m
         19    1.391E+01                                 F               0         X-component position of node 7 (blade 1, node 6), m
         20   -4.159E+01                                 F               0         Y-component position of node 7 (blade 1, node 6), m
         21    1.359E+02                                 F               0         Z-component position of node 7 (blade 1, node 6), m
         22    1.363E+01                                 F               0         X-component position of node 8 (blade 1, node 7), m
         23   -4.517E+01                                 F               0         Y-component position of node 8 (blade 1, node 7), m
         24    1.344E+02                                 F               0         Z-component position of node 8 (blade 1, node 7), m
         25    1.334E+01                                 F               0         X-component position of node 9 (blade 1, node 8), m
         26   -4.874E+01                                 F               0         Y-component position of node 9 (blade 1, node 8), m
         27    1.330E+02                                 F               0         Z-component position of node 9 (blade 1, node 8), m
         28    1.306E+01                                 F               0         X-component position of node 10 (blade 1, node 9), m
         29   -5.232E+01                                 F               0         Y-component position of node 10 (blade 1, node 9), m
         30    1.315E+02                                 F               0         Z-component position of node 10 (blade 1, node 9), m
         31    1.277E+01                                 F               0         X-component position of node 11 (blade 1, node 10), m
         32   -5.589E+01                                 F               0         Y-component position of node 11 (blade 1, node 10), m
         33    1.301E+02                                 F               0         Z-component position of node 11 (blade 1, node 10), m
         34    1.249E+01                                 F               0         X-component position of node 12 (blade 1, node 11), m
         35   -5.946E+01                                 F               0         Y-component position of node 12 (blade 1, node 11), m
         36    1.286E+02                                 F               0         Z-component position of node 12 (blade 1, node 11), m
         37    1.220E+01                                 F               0         X-component position of node 13 (blade 1, node 12), m
         38   -6.304E+01                                 F               0         Y-component position of node 13 (blade 1, node 12), m
         39    1.272E+02                                 F               0         Z-component position of node 13 (blade 1, node 12), m
         40    1.192E+01                                 F               0         X-component position of node 14 (blade 1, node 13), m
         41   -6.661E+01                                 F               0         Y-component position of node 14 (blade 1, node 13), m
         42    1.257E+02                                 F               0         Z-component position of node 14 (blade 1, node 13), m
         43    1.163E+01                                 F               0         X-component position of node 15 (blade 1, node 14), m
         44   -7.019E+01                                 F               0         Y-component position of node 15 (blade 1, node 14), m
         45    1.243E+02                                 F               0         Z-component position of node 15 (blade 1, node 14), m
         46    1.135E+01                                 F               0         X-component position of node 16 (blade 1, node 15), m
         47   -7.376E+01                                 F               0         Y-component position of node 16 (blade 1, node 15), m
         48    1.228E+02                                 F               0         Z-component position of node 16 (blade 1, node 15), m
         49    1.106E+01                                 F               0         X-component position of node 17 (blade 1, node 16), m
         50   -7.734E+01                                 F               0         Y-component position of node 17 (blade 1, node 16), m
         51    1.214E+02                                 F               0         Z-component position of node 17 (blade 1, node 16), m
         52    1.078E+01                                 F               0         X-component position of node 18 (blade 1, node 17), m
         53   -8.091E+01                                 F               0         Y-component position of node 18 (blade 1, node 17), m
         54    1.199E+02                                 F               0         Z-component position of node 18 (blade 1, node 17), m
         55    1.049E+01                                 F               0         X-component position of node 19 (blade 1, node 18), m
         56   -8.448E+01                                 F               0         Y-component position of node 19 (blade 1, node 18), m
         57    1.185E+02                                 F               0         Z-component position of node 19 (blade 1, node 18), m
         58    1.021E+01                                 F               0         X-component position of node 20 (blade 1, node 19), m
         59   -8.806E+01                                 F               0         Y-component position of node 20 (blade 1, node 19), m
         60    1.170E+02                                 F               0         Z-component position of node 20 (blade 1, node 19), m
         61    9.923E+00                                 F               0         X-component position of node 21 (blade 1, node 20), m
         62   -9.163E+01                                 F               0         Y-component position of node 21 (blade 1, node 20), m
         63    1.156E+02                                 F               0         Z-component position of node 21 (blade 1, node 20), m
         64    9.638E+00                                 F               0         X-component position of node 22 (blade 1, node 21), m
         65   -9.521E+01                                 F               0         Y-component position of node 22 (blade 1, node 21), m
         66    1.141E+02                                 F               0         Z-component position of node 22 (blade 1, node 21), m
         67    9.353E+00                                 F               0         X-component position of node 23 (blade 1, node 22), m
         68   -9.878E+01                                 F               0         Y-component position of node 23 (blade 1, node 22), m
         69    1.127E+02                                 F               0         Z-component position of node 23 (blade 1, node 22), m
         70    9.068E+00                                 F               0         X-component position of node 24 (blade 1, node 23), m
         71   -1.024E+02                                 F               0         Y-component position of node 24 (blade 1, node 23), m
         72    1.112E+02                                 F               0         Z-component position of node 24 (blade 1, node 23), m
         73    8.783E+00                                 F               0         X-component position of node 25 (blade 1, node 24), m
         74   -1.059E+02                                 F               0         Y-component position of node 25 (blade 1, node 24), m
         75    1.098E+02                                 F               0         Z-component position of node 25 (blade 1, node 24), m
         76    8.498E+00                                 F               0         X-component position of node 26 (blade 1, node 25), m
         77   -1.095E+02                                 F               0         Y-component position of node 26 (blade 1, node 25), m
         78    1.083E+02                                 F               0         Z-component position of node 26 (blade 1, node 25), m
         79    8.213E+00                                 F               0         X-component position of node 27 (blade 1, node 26), m
         80   -1.131E+02                                 F               0         Y-component position of node 27 (blade 1, node 26), m
         81    1.069E+02                                 F               0         Z-component position of node 27 (blade 1, node 26), m
         82    7.928E+00                                 F               0         X-component position of node 28 (blade 1, node 27), m
         83   -1.167E+02                                 F               0         Y-component position of node 28 (blade 1, node 27), m
         84    1.054E+02                                 F               0         Z-component position of node 28 (blade 1, node 27), m
         85    7.686E+00                                 F               0         X-component position of node 29 (blade 1, node 28), m
         86   -1.197E+02                                 F               0         Y-component position of node 29 (blade 1, node 28), m
         87    1.042E+02                                 F               0         Z-component position of node 29 (blade 1, node 28), m
         88    1.577E+01                                 F               0         X-component position of node 30 (blade 2, node 1), m
         89   -3.352E+00                                 F               0         Y-component position of node 30 (blade 2, node 1), m
         90    1.463E+02                                 F               0         Z-component position of node 30 (blade 2, node 1), m
         91    1.557E+01                                 F               0         X-component position of node 31 (blade 2, node 2), m
         92   -2.294E+00                                 F               0         Y-component position of node 31 (blade 2, node 2), m
         93    1.455E+02                                 F               0         Z-component position of node 31 (blade 2, node 2), m
         94    1.282E+01                                 F               0         X-component position of node 32 (blade 2, node 3), m
         95    1.210E+01                                 F               0         Y-component position of node 32 (blade 2, node 3), m
         96    1.348E+02                                 F               0         Z-component position of node 32 (blade 2, node 3), m
         97    1.223E+01                                 F               0         X-component position of node 33 (blade 2, node 4), m
         98    1.516E+01                                 F               0         Y-component position of node 33 (blade 2, node 4), m
         99    1.325E+02                                 F               0         Z-component position of node 33 (blade 2, node 4), m
        100    1.164E+01                                 F               0         X-component position of node 34 (blade 2, node 5), m
        101    1.823E+01                                 F               0         Y-component position of node 34 (blade 2, node 5), m
        102    1.303E+02                                 F               0         Z-component position of node 34 (blade 2, node 5), m
        103    1.106E+01                                 F               0         X-component position of node 35 (blade 2, node 6), m
        104    2.129E+01                                 F               0         Y-component position of node 35 (blade 2, node 6), m
        105    1.280E+02                                 F               0         Z-component position of node 35 (blade 2, node 6), m
        106    1.047E+01                                 F               0         X-component position of node 36 (blade 2, node 7), m
        107    2.436E+01                                 F               0         Y-component position of node 36 (blade 2, node 7), m
        108    1.257E+02                                 F               0         Z-component position of node 36 (blade 2, node 7), m
        109    9.883E+00                                 F               0         X-component position of node 37 (blade 2, node 8), m
        110    2.743E+01                                 F               0         Y-component position of node 37 (blade 2, node 8), m
        111    1.234E+02                                 F               0         Z-component position of node 37 (blade 2, node 8), m
        112    9.296E+00                                 F               0         X-component position of node 38 (blade 2, node 9), m
        113    3.049E+01                                 F               0         Y-component position of node 38 (blade 2, node 9), m
        114    1.211E+02                                 F               0         Z-component position of node 38 (blade 2, node 9), m
        115    8.710E+00                                 F               0         X-component position of node 39 (blade 2, node 10), m
        116    3.356E+01                                 F               0         Y-component position of node 39 (blade 2, node 10), m
        117    1.188E+02                                 F               0         Z-component position of node 39 (blade 2, node 10), m
        118    8.123E+00                                 F               0         X-component position of node 40 (blade 2, node 11), m
        119    3.662E+01                                 F               0         Y-component position of node 40 (blade 2, node 11), m
        120    1.166E+02                                 F               0         Z-component position of node 40 (blade 2, node 11), m
        121    7.536E+00                                 F               0         X-component position of node 41 (blade 2, node 12), m
        122    3.969E+01                                 F               0         Y-component position of node 41 (blade 2, node 12), m
        123    1.143E+02                                 F               0         Z-component position of node 41 (blade 2, node 12), m
        124    6.950E+00                                 F               0         X-component position of node 42 (blade 2, node 13), m
        125    4.276E+01                                 F               0         Y-component position of node 42 (blade 2, node 13), m
        126    1.120E+02                                 F               0         Z-component position of node 42 (blade 2, node 13), m
        127    6.363E+00                                 F               0         X-component position of node 43 (blade 2, node 14), m
        128    4.582E+01                                 F               0         Y-component position of node 43 (blade 2, node 14), m
        129    1.097E+02                                 F               0         Z-component position of node 43 (blade 2, node 14), m
        130    5.777E+00                                 F               0         X-component position of node 44 (blade 2, node 15), m
        131    4.889E+01                                 F               0         Y-component position of node 44 (blade 2, node 15), m
        132    1.074E+02                                 F               0         Z-component position of node 44 (blade 2, node 15), m
        133    5.190E+00                                 F               0         X-component position of node 45 (blade 2, node 16), m
        134    5.196E+01                                 F               0         Y-component position of node 45 (blade 2, node 16), m
        135    1.051E+02                                 F               0         Z-component position of node 45 (blade 2, node 16), m
        136    4.603E+00                                 F               0         X-component position of node 46 (blade 2, node 17), m
        137    5.502E+01                                 F               0         Y-component position of node 46 (blade 2, node 17), m
        138    1.029E+02                                 F               0         Z-component position of node 46 (blade 2, node 17), m
        139    4.017E+00                                 F               0         X-component position of node 47 (blade 2, node 18), m
        140    5.809E+01                                 F               0         Y-component position of node 47 (blade 2, node 18), m
        141    1.006E+02                                 F               0         Z-component position of node 47 (blade 2, node 18), m
        142    3.430E+00                                 F               0         X-component position of node 48 (blade 2, node 19), m
        143    6.115E+01                                 F               0         Y-component position of node 48 (blade 2, node 19), m
        144    9.830E+01                                 F               0         Z-component position of node 48 (blade 2, node 19), m
        145    2.843E+00                                 F               0         X-component position of node 49 (blade 2, node 20), m
        146    6.422E+01                                 F               0         Y-component position of node 49 (blade 2, node 20), m
        147    9.601E+01                                 F               0         Z-component position of node 49 (blade 2, node 20), m
        148    2.257E+00                                 F               0         X-component position of node 50 (blade 2, node 21), m
        149    6.729E+01                                 F               0         Y-component position of node 50 (blade 2, node 21), m
        150    9.373E+01                                 F               0         Z-component position of node 50 (blade 2, node 21), m
        151    1.670E+00                                 F               0         X-component position of node 51 (blade 2, node 22), m
        152    7.035E+01                                 F               0         Y-component position of node 51 (blade 2, node 22), m
        153    9.145E+01                                 F               0         Z-component position of node 51 (blade 2, node 22), m
        154    1.083E+00                                 F               0         X-component position of node 52 (blade 2, node 23), m
        155    7.342E+01                                 F               0         Y-component position of node 52 (blade 2, node 23), m
        156    8.916E+01                                 F               0         Z-component position of node 52 (blade 2, node 23), m
        157    4.968E-01                                 F               0         X-component position of node 53 (blade 2, node 24), m
        158    7.648E+01                                 F               0         Y-component position of node 53 (blade 2, node 24), m
        159    8.688E+01                                 F               0         Z-component position of node 53 (blade 2, node 24), m
        160   -8.976E-02                                 F               0         X-component position of node 54 (blade 2, node 25), m
        161    7.955E+01                                 F               0         Y-component position of node 54 (blade 2, node 25), m
        162    8.460E+01                                 F               0         Z-component position of node 54 (blade 2, node 25), m
        163   -6.765E-01                                 F               0         X-component position of node 55 (blade 2, node 26), m
        164    8.262E+01                                 F               0         Y-component position of node 55 (blade 2, node 26), m
        165    8.231E+01                                 F               0         Z-component position of node 55 (blade 2, node 26), m
        166   -1.263E+00                                 F               0         X-component position of node 56 (blade 2, node 27), m
        167    8.568E+01                                 F               0         Y-component position of node 56 (blade 2, node 27), m
        168    8.003E+01                                 F               0         Z-component position of node 56 (blade 2, node 27), m
        169   -1.760E+00                                 F               0         X-component position of node 57 (blade 2, node 28), m
        170    8.828E+01                                 F               0         Y-component position of node 57 (blade 2, node 28), m
        171    7.809E+01                                 F               0         Z-component position of node 57 (blade 2, node 28), m
        172    1.786E+01                                 F               0         X-component position of node 58 (blade 3, node 1), m
        173   -7.016E+00                                 F               0         Y-component position of node 58 (blade 3, node 1), m
        174    1.550E+02                                 F               0         Z-component position of node 58 (blade 3, node 1), m
        175    1.816E+01                                 F               0         X-component position of node 59 (blade 3, node 2), m
        176   -6.841E+00                                 F               0         Y-component position of node 59 (blade 3, node 2), m
        177    1.562E+02                                 F               0         Z-component position of node 59 (blade 3, node 2), m
        178    2.225E+01                                 F               0         X-component position of node 60 (blade 3, node 3), m
        179   -4.456E+00                                 F               0         Y-component position of node 60 (blade 3, node 3), m
        180    1.738E+02                                 F               0         Z-component position of node 60 (blade 3, node 3), m
        181    2.312E+01                                 F               0         X-component position of node 61 (blade 3, node 4), m
        182   -3.948E+00                                 F               0         Y-component position of node 61 (blade 3, node 4), m
        183    1.775E+02                                 F               0         Z-component position of node 61 (blade 3, node 4), m
        184    2.400E+01                                 F               0         X-component position of node 62 (blade 3, node 5), m
        185   -3.440E+00                                 F               0         Y-component position of node 62 (blade 3, node 5), m
        186    1.812E+02                                 F               0         Z-component position of node 62 (blade 3, node 5), m
        187    2.487E+01                                 F               0         X-component position of node 63 (blade 3, node 6), m
        188   -2.932E+00                                 F               0         Y-component position of node 63 (blade 3, node 6), m
        189    1.850E+02                                 F               0         Z-component position of node 63 (blade 3, node 6), m
        190    2.574E+01                                 F               0         X-component position of node 64 (blade 3, node 7), m
        191   -2.424E+00                                 F               0         Y-component position of node 64 (blade 3, node 7), m
        192    1.887E+02                                 F               0         Z-component position of node 64 (blade 3, node 7), m
        193    2.661E+01                                 F               0         X-component position of node 65 (blade 3, node 8), m
        194   -1.916E+00                                 F               0         Y-component position of node 65 (blade 3, node 8), m
        195    1.924E+02                                 F               0         Z-component position of node 65 (blade 3, node 8), m
        196    2.748E+01                                 F               0         X-component position of node 66 (blade 3, node 9), m
        197   -1.408E+00                                 F               0         Y-component position of node 66 (blade 3, node 9), m
        198    1.962E+02                                 F               0         Z-component position of node 66 (blade 3, node 9), m
        199    2.835E+01                                 F               0         X-component position of node 67 (blade 3, node 10), m
        200   -8.998E-01                                 F               0         Y-component position of node 67 (blade 3, node 10), m
        201    1.999E+02                                 F               0         Z-component position of node 67 (blade 3, node 10), m
        202    2.923E+01                                 F               0         X-component position of node 68 (blade 3, node 11), m
        203   -3.918E-01                                 F               0         Y-component position of node 68 (blade 3, node 11), m
        204    2.036E+02                                 F               0         Z-component position of node 68 (blade 3, node 11), m
        205    3.010E+01                                 F               0         X-component position of node 69 (blade 3, node 12), m
        206    1.163E-01                                 F               0         Y-component position of node 69 (blade 3, node 12), m
        207    2.074E+02                                 F               0         Z-component position of node 69 (blade 3, node 12), m
        208    3.097E+01                                 F               0         X-component position of node 70 (blade 3, node 13), m
        209    6.243E-01                                 F               0         Y-component position of node 70 (blade 3, node 13), m
        210    2.111E+02                                 F               0         Z-component position of node 70 (blade 3, node 13), m
        211    3.184E+01                                 F               0         X-component position of node 71 (blade 3, node 14), m