
Linearized model: Predictions were generated on 12-Feb-2024 at 15:30:16 using OpenFAST, compiled as a 64-bit application using single precision at commit v3.5.1
 linked with  NWTC Subroutine Library; ElastoDyn; InflowWind; AeroDyn; ServoDyn; HydroDyn; MAP++ (<1.20.10>, <Oct-20-2023>)

Description from the FAST input file: CCT-9 Campign 4 model. Input files to be run with OpenFAST 3.5.0. GitHub branch from Lu Wang (https://github.com/luwang00/openfast/tree/dev) compiled on March 7, 2023.

Simulation information:
   Simulation time:                  1002.7500 s
   Rotor Speed:                         1.0397 rad/s
   Azimuth:                             3.9077 rad
   Wind Speed:                         12.0000 m/s
   Number of continuous states:         0
   Number of discrete states:           0
   Number of constraint states:         0
   Number of inputs:                 1746
   Number of outputs:                   4
   Jacobians included in this file?    No

Order of inputs:
     Column   Operating Point                     Rotating Frame? Derivative Order Description
   ---------- ---------------                     --------------- ---------------- -----------
          1    1.514E+01                                 F               0         Tower X translation displacement, node 1, m
          2   -1.092E+00                                 F               0         Tower Y translation displacement, node 1, m
          3   -5.047E-01                                 F               0         Tower Z translation displacement, node 1, m
          4    1.708E+01                                 F               0         Tower X translation displacement, node 2, m
          5   -1.682E+00                                 F               0         Tower Y translation displacement, node 2, m
          6   -6.709E-01                                 F               0         Tower Z translation displacement, node 2, m
          7    1.904E+01                                 F               0         Tower X translation displacement, node 3, m
          8   -2.279E+00                                 F               0         Tower Y translation displacement, node 3, m
          9   -8.429E-01                                 F               0         Tower Z translation displacement, node 3, m
         10    2.103E+01                                 F               0         Tower X translation displacement, node 4, m
         11   -2.880E+00                                 F               0         Tower Y translation displacement, node 4, m
         12   -1.019E+00                                 F               0         Tower Z translation displacement, node 4, m
         13    2.305E+01                                 F               0         Tower X translation displacement, node 5, m
         14   -3.484E+00                                 F               0         Tower Y translation displacement, node 5, m
         15   -1.200E+00                                 F               0         Tower Z translation displacement, node 5, m
         16    2.508E+01                                 F               0         Tower X translation displacement, node 6, m
         17   -4.093E+00                                 F               0         Tower Y translation displacement, node 6, m
         18   -1.383E+00                                 F               0         Tower Z translation displacement, node 6, m
         19    2.713E+01                                 F               0         Tower X translation displacement, node 7, m
         20   -4.703E+00                                 F               0         Tower Y translation displacement, node 7, m
         21   -1.569E+00                                 F               0         Tower Z translation displacement, node 7, m
         22    2.918E+01                                 F               0         Tower X translation displacement, node 8, m
         23   -5.316E+00                                 F               0         Tower Y translation displacement, node 8, m
         24   -1.757E+00                                 F               0         Tower Z translation displacement, node 8, m
         25    3.125E+01                                 F               0         Tower X translation displacement, node 9, m
         26   -5.931E+00                                 F               0         Tower Y translation displacement, node 9, m
         27   -1.947E+00                                 F               0         Tower Z translation displacement, node 9, m
         28    3.332E+01                                 F               0         Tower X translation displacement, node 10, m
         29   -6.547E+00                                 F               0         Tower Y translation displacement, node 10, m
         30   -2.137E+00                                 F               0         Tower Z translation displacement, node 10, m
         31    3.540E+01                                 F               0         Tower X translation displacement, node 11, m
         32   -7.163E+00                                 F               0         Tower Y translation displacement, node 11, m
         33   -2.328E+00                                 F               0         Tower Z translation displacement, node 11, m
         34    9.879E-01,  1.371E-02, -1.548E-01         F               0         Tower X orientation angle, node 1, rad
         35   -6.163E-03,  9.988E-01,  4.916E-02         F               0         Tower Y orientation angle, node 1, rad
         36    1.552E-01, -4.761E-02,  9.867E-01         F               0         Tower Z orientation angle, node 1, rad
         37    9.874E-01,  1.384E-02, -1.574E-01         F               0         Tower X orientation angle, node 2, rad
         38   -6.089E-03,  9.987E-01,  4.963E-02         F               0         Tower Y orientation angle, node 2, rad
         39    1.579E-01, -4.805E-02,  9.863E-01         F               0         Tower Z orientation angle, node 2, rad
         40    9.871E-01,  1.395E-02, -1.597E-01         F               0         Tower X orientation angle, node 3, rad
         41   -6.021E-03,  9.987E-01,  5.005E-02         F               0         Tower Y orientation angle, node 3, rad
         42    1.602E-01, -4.844E-02,  9.859E-01         F               0         Tower Z orientation angle, node 3, rad
         43    9.868E-01,  1.405E-02, -1.616E-01         F               0         Tower X orientation angle, node 4, rad
         44   -5.961E-03,  9.987E-01,  5.042E-02         F               0         Tower Y orientation angle, node 4, rad
         45    1.621E-01, -4.878E-02,  9.856E-01         F               0         Tower Z orientation angle, node 4, rad
         46    9.865E-01,  1.413E-02, -1.633E-01         F               0         Tower X orientation angle, node 5, rad
         47   -5.909E-03,  9.987E-01,  5.073E-02         F               0         Tower Y orientation angle, node 5, rad
         48    1.638E-01, -4.908E-02,  9.853E-01         F               0         Tower Z orientation angle, node 5, rad
         49    9.863E-01,  1.420E-02, -1.646E-01         F               0         Tower X orientation angle, node 6, rad
         50   -5.865E-03,  9.987E-01,  5.099E-02         F               0         Tower Y orientation angle, node 6, rad
         51    1.651E-01, -4.933E-02,  9.850E-01         F               0         Tower Z orientation angle, node 6, rad
         52    9.861E-01,  1.425E-02, -1.656E-01         F               0         Tower X orientation angle, node 7, rad
         53   -5.830E-03,  9.987E-01,  5.121E-02         F               0         Tower Y orientation angle, node 7, rad
         54    1.661E-01, -4.953E-02,  9.849E-01         F               0         Tower Z orientation angle, node 7, rad
         55    9.860E-01,  1.429E-02, -1.664E-01         F               0         Tower X orientation angle, node 8, rad
         56   -5.802E-03,  9.987E-01,  5.137E-02         F               0         Tower Y orientation angle, node 8, rad
         57    1.669E-01, -4.968E-02,  9.847E-01         F               0         Tower Z orientation angle, node 8, rad
         58    9.859E-01,  1.431E-02, -1.669E-01         F               0         Tower X orientation angle, node 9, rad
         59   -5.782E-03,  9.987E-01,  5.149E-02         F               0         Tower Y orientation angle, node 9, rad
         60    1.674E-01, -4.980E-02,  9.846E-01         F               0         Tower Z orientation angle, node 9, rad
         61    9.858E-01,  1.433E-02, -1.673E-01         F               0         Tower X orientation angle, node 10, rad
         62   -5.769E-03,  9.987E-01,  5.157E-02         F               0         Tower Y orientation angle, node 10, rad
         63    1.678E-01, -4.987E-02,  9.846E-01         F               0         Tower Z orientation angle, node 10, rad
         64    9.858E-01,  1.434E-02, -1.674E-01         F               0         Tower X orientation angle, node 11, rad
         65   -5.762E-03,  9.987E-01,  5.161E-02         F               0         Tower Y orientation angle, node 11, rad
         66    1.680E-01, -4.991E-02,  9.845E-01         F               0         Tower Z orientation angle, node 11, rad
         67   -2.710E-03                                 F               0         Tower X translation velocity, node 1, m/s
         68   -3.328E-02                                 F               0         Tower Y translation velocity, node 1, m/s
         69   -1.448E-03                                 F               0         Tower Z translation velocity, node 1, m/s
         70   -3.676E-03                                 F               0         Tower X translation velocity, node 2, m/s
         71   -5.541E-02                                 F               0         Tower Y translation velocity, node 2, m/s
         72   -2.367E-03                                 F               0         Tower Z translation velocity, node 2, m/s
         73   -4.604E-03                                 F               0         Tower X translation velocity, node 3, m/s
         74   -7.781E-02                                 F               0         Tower Y translation velocity, node 3, m/s
         75   -3.314E-03                                 F               0         Tower Z translation velocity, node 3, m/s
         76   -5.507E-03                                 F               0         Tower X translation velocity, node 4, m/s
         77   -1.004E-01                                 F               0         Tower Y translation velocity, node 4, m/s
         78   -4.282E-03                                 F               0         Tower Z translation velocity, node 4, m/s
         79   -6.392E-03                                 F               0         Tower X translation velocity, node 5, m/s
         80   -1.232E-01                                 F               0         Tower Y translation velocity, node 5, m/s
         81   -5.268E-03                                 F               0         Tower Z translation velocity, node 5, m/s
         82   -7.267E-03                                 F               0         Tower X translation velocity, node 6, m/s
         83   -1.462E-01                                 F               0         Tower Y translation velocity, node 6, m/s
         84   -6.270E-03                                 F               0         Tower Z translation velocity, node 6, m/s
         85   -8.136E-03                                 F               0         Tower X translation velocity, node 7, m/s
         86   -1.693E-01                                 F               0         Tower Y translation velocity, node 7, m/s
         87   -7.282E-03                                 F               0         Tower Z translation velocity, node 7, m/s
         88   -9.003E-03                                 F               0         Tower X translation velocity, node 8, m/s
         89   -1.925E-01                                 F               0         Tower Y translation velocity, node 8, m/s
         90   -8.303E-03                                 F               0         Tower Z translation velocity, node 8, m/s
         91   -9.871E-03                                 F               0         Tower X translation velocity, node 9, m/s
         92   -2.157E-01                                 F               0         Tower Y translation velocity, node 9, m/s
         93   -9.331E-03                                 F               0         Tower Z translation velocity, node 9, m/s
         94   -1.074E-02                                 F               0         Tower X translation velocity, node 10, m/s
         95   -2.390E-01                                 F               0         Tower Y translation velocity, node 10, m/s
         96   -1.036E-02                                 F               0         Tower Z translation velocity, node 10, m/s
         97   -1.161E-02                                 F               0         Tower X translation velocity, node 11, m/s
         98   -2.624E-01                                 F               0         Tower Y translation velocity, node 11, m/s
         99   -1.140E-02                                 F               0         Tower Z translation velocity, node 11, m/s
        100    3.687E+01                                 F               0         Hub X translation displacement, node 1, m
        101   -7.710E+00                                 F               0         Hub Y translation displacement, node 1, m
        102   -6.411E-01                                 F               0         Hub Z translation displacement, node 1, m
        103    9.628E-01,  1.948E-02, -2.694E-01         F               0         Hub X orientation angle, node 1, rad
        104   -1.831E-01, -6.862E-01, -7.039E-01         F               0         Hub Y orientation angle, node 1, rad
        105   -1.986E-01,  7.271E-01, -6.572E-01         F               0         Hub Z orientation angle, node 1, rad
        106    1.003E+00                                 F               0         Hub X rotation velocity, node 1, rad/s
        107    2.020E-02                                 F               0         Hub Y rotation velocity, node 1, rad/s
        108   -2.805E-01                                 F               0         Hub Z rotation velocity, node 1, rad/s
        109    9.678E-01,  3.983E-02, -2.484E-01         F               0         Blade root 1 X orientation angle, node 1, rad
        110   -1.545E-01, -6.854E-01, -7.116E-01         F               0         Blade root 1 Y orientation angle, node 1, rad
        111   -1.986E-01,  7.271E-01, -6.572E-01         F               0         Blade root 1 Z orientation angle, node 1, rad
        112    9.648E-01, -9.388E-03, -2.629E-01         F               0         Blade root 2 X orientation angle, node 1, rad
        113   -5.185E-02,  9.730E-01, -2.250E-01         F               0         Blade root 2 Y orientation angle, node 1, rad
        114    2.579E-01,  2.307E-01,  9.382E-01         F               0         Blade root 2 Z orientation angle, node 1, rad
        115    9.546E-01,  2.797E-02, -2.966E-01         F               0         Blade root 3 X orientation angle, node 1, rad
        116    2.920E-01, -2.859E-01,  9.127E-01         F               0         Blade root 3 Y orientation angle, node 1, rad
        117   -5.927E-02, -9.579E-01, -2.811E-01         F               0         Blade root 3 Z orientation angle, node 1, rad
        118    3.519E+01                                 F               0         Blade 1 X translation displacement, node 1, m
        119   -3.682E+00                                 F               0         Blade 1 Y translation displacement, node 1, m
        120   -9.791E+00                                 F               0         Blade 1 Z translation displacement, node 1, m
        121    3.478E+01                                 F               0         Blade 1 X translation displacement, node 2, m
        122   -2.711E+00                                 F               0         Blade 1 Y translation displacement, node 2, m
        123   -1.200E+01                                 F               0         Blade 1 Z translation displacement, node 2, m
        124    2.928E+01                                 F               0         Blade 1 X translation displacement, node 3, m
        125    1.049E+01                                 F               0         Blade 1 Y translation displacement, node 3, m
        126   -4.198E+01                                 F               0         Blade 1 Z translation displacement, node 3, m
        127    2.811E+01                                 F               0         Blade 1 X translation displacement, node 4, m
        128    1.330E+01                                 F               0         Blade 1 Y translation displacement, node 4, m
        129   -4.837E+01                                 F               0         Blade 1 Z translation displacement, node 4, m
        130    2.694E+01                                 F               0         Blade 1 X translation displacement, node 5, m
        131    1.611E+01                                 F               0         Blade 1 Y translation displacement, node 5, m
        132   -5.476E+01                                 F               0         Blade 1 Z translation displacement, node 5, m
        133    2.576E+01                                 F               0         Blade 1 X translation displacement, node 6, m
        134    1.892E+01                                 F               0         Blade 1 Y translation displacement, node 6, m
        135   -6.114E+01                                 F               0         Blade 1 Z translation displacement, node 6, m
        136    2.459E+01                                 F               0         Blade 1 X translation displacement, node 7, m
        137    2.174E+01                                 F               0         Blade 1 Y translation displacement, node 7, m
        138   -6.753E+01                                 F               0         Blade 1 Z translation displacement, node 7, m
        139    2.342E+01                                 F               0         Blade 1 X translation displacement, node 8, m
        140    2.455E+01                                 F               0         Blade 1 Y translation displacement, node 8, m
        141   -7.392E+01                                 F               0         Blade 1 Z translation displacement, node 8, m
        142    2.225E+01                                 F               0         Blade 1 X translation displacement, node 9, m
        143    2.736E+01                                 F               0         Blade 1 Y translation displacement, node 9, m
        144   -8.031E+01                                 F               0         Blade 1 Z translation displacement, node 9, m
        145    2.107E+01                                 F               0         Blade 1 X translation displacement, node 10, m
        146    3.017E+01                                 F               0         Blade 1 Y translation displacement, node 10, m
        147   -8.670E+01                                 F               0         Blade 1 Z translation displacement, node 10, m
        148    1.990E+01                                 F               0         Blade 1 X translation displacement, node 11, m
        149    3.299E+01                                 F               0         Blade 1 Y translation displacement, node 11, m
        150   -9.308E+01                                 F               0         Blade 1 Z translation displacement, node 11, m
        151    1.873E+01                                 F               0         Blade 1 X translation displacement, node 12, m
        152    3.580E+01                                 F               0         Blade 1 Y translation displacement, node 12, m
        153   -9.947E+01                                 F               0         Blade 1 Z translation displacement, node 12, m
        154    1.756E+01                                 F               0         Blade 1 X translation displacement, node 13, m
        155    3.861E+01                                 F               0         Blade 1 Y translation displacement, node 13, m
        156   -1.059E+02                                 F               0         Blade 1 Z translation displacement, node 13, m
        157    1.638E+01                                 F               0         Blade 1 X translation displacement, node 14, m
        158    4.142E+01                                 F               0         Blade 1 Y translation displacement, node 14, m
        159   -1.122E+02                                 F               0         Blade 1 Z translation displacement, node 14, m
        160    1.521E+01                                 F               0         Blade 1 X translation displacement, node 15, m
        161    4.424E+01                                 F               0         Blade 1 Y translation displacement, node 15, m
        162   -1.186E+02                                 F               0         Blade 1 Z translation displacement, node 15, m
        163    1.404E+01                                 F               0         Blade 1 X translation displacement, node 16, m
        164    4.705E+01                                 F               0         Blade 1 Y translation displacement, node 16, m
        165   -1.250E+02                                 F               0         Blade 1 Z translation displacement, node 16, m
        166    1.287E+01                                 F               0         Blade 1 X translation displacement, node 17, m
        167    4.986E+01                                 F               0         Blade 1 Y translation displacement, node 17, m
        168   -1.314E+02                                 F               0         Blade 1 Z translation displacement, node 17, m
        169    1.169E+01                                 F               0         Blade 1 X translation displacement, node 18, m
        170    5.267E+01                                 F               0         Blade 1 Y translation displacement, node 18, m
        171   -1.378E+02                                 F               0         Blade 1 Z translation displacement, node 18, m
        172    1.052E+01                                 F               0         Blade 1 X translation displacement, node 19, m
        173    5.548E+01                                 F               0         Blade 1 Y translation displacement, node 19, m
        174   -1.442E+02                                 F               0         Blade 1 Z translation displacement, node 19, m
        175    9.350E+00                                 F               0         Blade 1 X translation displacement, node 20, m
        176    5.830E+01                                 F               0         Blade 1 Y translation displacement, node 20, m
        177   -1.506E+02                                 F               0         Blade 1 Z translation displacement, node 20, m
        178    8.177E+00                                 F               0         Blade 1 X translation displacement, node 21, m
        179    6.111E+01                                 F               0         Blade 1 Y translation displacement, node 21, m
        180   -1.570E+02                                 F               0         Blade 1 Z translation displacement, node 21, m
        181    7.005E+00                                 F               0         Blade 1 X translation displacement, node 22, m
        182    6.392E+01                                 F               0         Blade 1 Y translation displacement, node 22, m
        183   -1.634E+02                                 F               0         Blade 1 Z translation displacement, node 22, m
        184    5.832E+00                                 F               0         Blade 1 X translation displacement, node 23, m
        185    6.673E+01                                 F               0         Blade 1 Y translation displacement, node 23, m
        186   -1.697E+02                                 F               0         Blade 1 Z translation displacement, node 23, m
        187    4.660E+00                                 F               0         Blade 1 X translation displacement, node 24, m
        188    6.955E+01                                 F               0         Blade 1 Y translation displacement, node 24, m
        189   -1.761E+02                                 F               0         Blade 1 Z translation displacement, node 24, m
        190    3.487E+00                                 F               0         Blade 1 X translation displacement, node 25, m
        191    7.236E+01                                 F               0         Blade 1 Y translation displacement, node 25, m
        192   -1.825E+02                                 F               0         Blade 1 Z translation displacement, node 25, m
        193    2.315E+00                                 F               0         Blade 1 X translation displacement, node 26, m
        194    7.517E+01                                 F               0         Blade 1 Y translation displacement, node 26, m
        195   -1.889E+02                                 F               0         Blade 1 Z translation displacement, node 26, m
        196    1.142E+00                                 F               0         Blade 1 X translation displacement, node 27, m
        197    7.798E+01                                 F               0         Blade 1 Y translation displacement, node 27, m
        198   -1.953E+02                                 F               0         Blade 1 Z translation displacement, node 27, m
        199    1.485E-01                                 F               0         Blade 1 X translation displacement, node 28, m
        200    8.037E+01                                 F               0         Blade 1 Y translation displacement, node 28, m
        201   -2.007E+02                                 F               0         Blade 1 Z translation displacement, node 28, m
        202    9.318E-01,  3.480E-01,  1.034E-01         F               0         Blade 1 X orientation angle, node 1, rad
        203    3.039E-01, -5.918E-01, -7.466E-01         F               0         Blade 1 Y orientation angle, node 1, rad
        204   -1.986E-01,  7.271E-01, -6.572E-01         F               0         Blade 1 Z orientation angle, node 1, rad
        205    9.318E-01,  3.480E-01,  1.034E-01         F               0         Blade 1 X orientation angle, node 2, rad
        206    3.039E-01, -5.918E-01, -7.466E-01         F               0         Blade 1 Y orientation angle, node 2, rad
        207   -1.986E-01,  7.271E-01, -6.572E-01         F               0         Blade 1 Z orientation angle, node 2, rad
        208    9.773E-01,  1.978E-01, -7.650E-02         F               0         Blade 1 X orientation angle, node 3, rad
        209    7.437E-02, -6.574E-01, -7.499E-01         F               0         Blade 1 Y orientation angle, node 3, rad
        210   -1.986E-01,  7.271E-01, -6.572E-01         F               0         Blade 1 Z orientation angle, node 3, rad
        211    9.795E-01,  1.699E-01, -1.081E-01         F               0         Blade 1 X orientation angle, node 4, rad
        212    3.304E-02, -6.652E-01, -7.460E-01         F               0         Blade 1 Y orientation angle, node 4, rad
        213   -1.986E-01,  7.271E-01, -6.572E-01         F               0         Blade 1 Z orientation angle, node 4, rad
        214    9.801E-01,  1.477E-01, -1.328E-01         F               0         Blade 1 X orientation angle, node 5, rad
        215    5.439E-04, -6.704E-01, -7.420E-01         F               0         Blade 1 Y orientation angle, node 5, rad
        216   -1.986E-01,  7.271E-01, -6.572E-01         F               0         Blade 1 Z orientation angle, node 5, rad
        217    9.797E-01,  1.299E-01, -1.524E-01         F               0         Blade 1 X orientation angle, node 6, rad
        218   -2.545E-02, -6.741E-01, -7.382E-01         F               0         Blade 1 Y orientation angle, node 6, rad
        219   -1.986E-01,  7.271E-01, -6.572E-01         F               0         Blade 1 Z orientation angle, node 6, rad
        220    9.790E-01,  1.152E-01, -1.685E-01         F               0         Blade 1 X orientation angle, node 7, rad
        221   -4.682E-02, -6.768E-01, -7.347E-01         F               0         Blade 1 Y orientation angle, node 7, rad
        222   -1.986E-01,  7.271E-01, -6.572E-01         F               0         Blade 1 Z orientation angle, node 7, rad
        223    9.779E-01,  1.028E-01, -1.818E-01         F               0         Blade 1 X orientation angle, node 8, rad
        224   -6.458E-02, -6.788E-01, -7.315E-01         F               0         Blade 1 Y orientation angle, node 8, rad
        225   -1.986E-01,  7.271E-01, -6.572E-01         F               0         Blade 1 Z orientation angle, node 8, rad
        226    9.768E-01,  9.241E-02, -1.930E-01         F               0         Blade 1 X orientation angle, node 9, rad
        227   -7.959E-02, -6.803E-01, -7.286E-01         F               0         Blade 1 Y orientation angle, node 9, rad