
Linearized model: Predictions were generated on 12-Feb-2024 at 15:30:16 using OpenFAST, compiled as a 64-bit application using single precision at commit v3.5.1
 linked with  NWTC Subroutine Library; ElastoDyn; InflowWind; AeroDyn; ServoDyn; HydroDyn; MAP++ (<1.20.10>, <Oct-20-2023>)

Description from the FAST input file: CCT-9 Campign 4 model. Input files to be run with OpenFAST 3.5.0. GitHub branch from Lu Wang (https://github.com/luwang00/openfast/tree/dev) compiled on March 7, 2023.

Simulation information:
   Simulation time:                  1000.2500 s
   Rotor Speed:                         1.0388 rad/s
   Azimuth:                             1.3097 rad
   Wind Speed:                         12.0000 m/s
   Number of continuous states:        22
   Number of discrete states:           0
   Number of constraint states:         0
   Number of inputs:                 1890
   Number of outputs:                  25
   Jacobians included in this file?    No

Order of continuous states:
   Row/Column Operating Point                     Rotating Frame? Derivative Order Description
   ---------- ---------------                     --------------- ---------------- -----------
          1    1.230E+01                                 F               2         Platform horizontal surge translation DOF (internal DOF index = DOF_Sg), m
          2   -2.194E-01                                 F               2         Platform horizontal sway translation DOF (internal DOF index = DOF_Sw), m
          3   -2.564E-01                                 F               2         Platform vertical heave translation DOF (internal DOF index = DOF_Hv), m
          4    4.426E-02                                 F               2         Platform roll tilt rotation DOF (internal DOF index = DOF_R), rad
          5    1.572E-01                                 F               2         Platform pitch tilt rotation DOF (internal DOF index = DOF_P), rad
          6    1.131E-02                                 F               2         Platform yaw rotation DOF (internal DOF index = DOF_Y), rad
          7    1.085E+00                                 F               2         1st tower fore-aft bending mode DOF (internal DOF index = DOF_TFA1), m
          8    1.736E-01                                 F               2         1st tower side-to-side bending mode DOF (internal DOF index = DOF_TSS1), m
          9    1.602E-03                                 F               2         2nd tower fore-aft bending mode DOF (internal DOF index = DOF_TFA2), m
         10    7.594E-05                                 F               2         2nd tower side-to-side bending mode DOF (internal DOF index = DOF_TSS2), m
         11    6.022E+00                                 F               2         Variable speed generator DOF (internal DOF index = DOF_GeAz), rad
         12   -1.307E-03                                 F               2         First time derivative of Platform horizontal surge translation DOF (internal DOF index = DOF_Sg), m/s
         13    1.045E-03                                 F               2         First time derivative of Platform horizontal sway translation DOF (internal DOF index = DOF_Sw), m/s
         14   -3.862E-03                                 F               2         First time derivative of Platform vertical heave translation DOF (internal DOF index = DOF_Hv), m/s
         15    2.000E-03                                 F               2         First time derivative of Platform roll tilt rotation DOF (internal DOF index = DOF_R), rad/s
         16   -7.343E-06                                 F               2         First time derivative of Platform pitch tilt rotation DOF (internal DOF index = DOF_P), rad/s
         17   -6.228E-04                                 F               2         First time derivative of Platform yaw rotation DOF (internal DOF index = DOF_Y), rad/s
         18   -1.348E-03                                 F               2         First time derivative of 1st tower fore-aft bending mode DOF (internal DOF index = DOF_TFA1), m/s
         19    1.406E-02                                 F               2         First time derivative of 1st tower side-to-side bending mode DOF (internal DOF index = DOF_TSS1), m/s
         20   -6.145E-06                                 F               2         First time derivative of 2nd tower fore-aft bending mode DOF (internal DOF index = DOF_TFA2), m/s
         21    1.489E-06                                 F               2         First time derivative of 2nd tower side-to-side bending mode DOF (internal DOF index = DOF_TSS2), m/s
         22    1.039E+00                                 F               2         First time derivative of Variable speed generator DOF (internal DOF index = DOF_GeAz), rad/s

Order of continuous state derivatives:
   Row/Column Operating Point                     Rotating Frame? Derivative Order Description
   ---------- ---------------                     --------------- ---------------- -----------
          1   -1.307E-03                                 F               2         First time derivative of Platform horizontal surge translation DOF (internal DOF index = DOF_Sg), m/s
          2    1.045E-03                                 F               2         First time derivative of Platform horizontal sway translation DOF (internal DOF index = DOF_Sw), m/s
          3   -3.862E-03                                 F               2         First time derivative of Platform vertical heave translation DOF (internal DOF index = DOF_Hv), m/s
          4    2.000E-03                                 F               2         First time derivative of Platform roll tilt rotation DOF (internal DOF index = DOF_R), rad/s
          5   -7.343E-06                                 F               2         First time derivative of Platform pitch tilt rotation DOF (internal DOF index = DOF_P), rad/s
          6   -6.228E-04                                 F               2         First time derivative of Platform yaw rotation DOF (internal DOF index = DOF_Y), rad/s
          7   -1.348E-03                                 F               2         First time derivative of 1st tower fore-aft bending mode DOF (internal DOF index = DOF_TFA1), m/s
          8    1.406E-02                                 F               2         First time derivative of 1st tower side-to-side bending mode DOF (internal DOF index = DOF_TSS1), m/s
          9   -6.145E-06                                 F               2         First time derivative of 2nd tower fore-aft bending mode DOF (internal DOF index = DOF_TFA2), m/s
         10    1.489E-06                                 F               2         First time derivative of 2nd tower side-to-side bending mode DOF (internal DOF index = DOF_TSS2), m/s
         11    1.039E+00                                 F               2         First time derivative of Variable speed generator DOF (internal DOF index = DOF_GeAz), rad/s
         12   -1.102E-04                                 F               2         First time derivative of First time derivative of Platform horizontal surge translation DOF (internal DOF index = DOF_Sg), m/s/s
         13   -3.335E-04                                 F               2         First time derivative of First time derivative of Platform horizontal sway translation DOF (internal DOF index = DOF_Sw), m/s/s
         14    1.499E-03                                 F               2         First time derivative of First time derivative of Platform vertical heave translation DOF (internal DOF index = DOF_Hv), m/s/s
         15   -2.083E-05                                 F               2         First time derivative of First time derivative of Platform roll tilt rotation DOF (internal DOF index = DOF_R), rad/s/s
         16   -2.722E-05                                 F               2         First time derivative of First time derivative of Platform pitch tilt rotation DOF (internal DOF index = DOF_P), rad/s/s
         17    7.587E-05                                 F               2         First time derivative of First time derivative of Platform yaw rotation DOF (internal DOF index = DOF_Y), rad/s/s
         18    4.187E-03                                 F               2         First time derivative of First time derivative of 1st tower fore-aft bending mode DOF (internal DOF index = DOF_TFA1), m/s/s
         19   -1.722E-03                                 F               2         First time derivative of First time derivative of 1st tower side-to-side bending mode DOF (internal DOF index = DOF_TSS1), m/s/s
         20    2.664E-05                                 F               2         First time derivative of First time derivative of 2nd tower fore-aft bending mode DOF (internal DOF index = DOF_TFA2), m/s/s
         21   -1.649E-06                                 F               2         First time derivative of First time derivative of 2nd tower side-to-side bending mode DOF (internal DOF index = DOF_TSS2), m/s/s
         22    2.112E-04                                 F               2         First time derivative of First time derivative of Variable speed generator DOF (internal DOF index = DOF_GeAz), rad/s/s

Order of inputs:
     Column   Operating Point                     Rotating Frame? Derivative Order Description
   ---------- ---------------                     --------------- ---------------- -----------
          1    1.658E+02                                 F               0         Blade 1 X force, node 1, N
          2    4.882E+01                                 F               0         Blade 1 Y force, node 1, N
          3    1.717E+02                                 F               0         Blade 1 Z force, node 1, N
          4    5.446E+02                                 F               0         Blade 1 X force, node 2, N
          5    8.726E+01                                 F               0         Blade 1 Y force, node 2, N
          6    2.130E+02                                 F               0         Blade 1 Z force, node 2, N
          7    6.178E+02                                 F               0         Blade 1 X force, node 3, N
          8    6.881E+01                                 F               0         Blade 1 Y force, node 3, N
          9    9.670E+01                                 F               0         Blade 1 Z force, node 3, N
         10    7.509E+02                                 F               0         Blade 1 X force, node 4, N
         11    6.174E+01                                 F               0         Blade 1 Y force, node 4, N
         12    1.234E+01                                 F               0         Blade 1 Z force, node 4, N
         13    8.840E+02                                 F               0         Blade 1 X force, node 5, N
         14    5.466E+01                                 F               0         Blade 1 Y force, node 5, N
         15   -7.203E+01                                 F               0         Blade 1 Z force, node 5, N
         16    1.017E+03                                 F               0         Blade 1 X force, node 6, N
         17    4.758E+01                                 F               0         Blade 1 Y force, node 6, N
         18   -1.564E+02                                 F               0         Blade 1 Z force, node 6, N
         19    1.150E+03                                 F               0         Blade 1 X force, node 7, N
         20    4.050E+01                                 F               0         Blade 1 Y force, node 7, N
         21   -2.408E+02                                 F               0         Blade 1 Z force, node 7, N
         22    1.283E+03                                 F               0         Blade 1 X force, node 8, N
         23    3.343E+01                                 F               0         Blade 1 Y force, node 8, N
         24   -3.251E+02                                 F               0         Blade 1 Z force, node 8, N
         25    1.416E+03                                 F               0         Blade 1 X force, node 9, N
         26    2.635E+01                                 F               0         Blade 1 Y force, node 9, N
         27   -4.095E+02                                 F               0         Blade 1 Z force, node 9, N
         28    1.550E+03                                 F               0         Blade 1 X force, node 10, N
         29    1.927E+01                                 F               0         Blade 1 Y force, node 10, N
         30   -4.939E+02                                 F               0         Blade 1 Z force, node 10, N
         31    1.683E+03                                 F               0         Blade 1 X force, node 11, N
         32    1.220E+01                                 F               0         Blade 1 Y force, node 11, N
         33   -5.782E+02                                 F               0         Blade 1 Z force, node 11, N
         34    1.816E+03                                 F               0         Blade 1 X force, node 12, N
         35    5.120E+00                                 F               0         Blade 1 Y force, node 12, N
         36   -6.626E+02                                 F               0         Blade 1 Z force, node 12, N
         37    1.949E+03                                 F               0         Blade 1 X force, node 13, N
         38   -1.958E+00                                 F               0         Blade 1 Y force, node 13, N
         39   -7.470E+02                                 F               0         Blade 1 Z force, node 13, N
         40    2.082E+03                                 F               0         Blade 1 X force, node 14, N
         41   -9.035E+00                                 F               0         Blade 1 Y force, node 14, N
         42   -8.313E+02                                 F               0         Blade 1 Z force, node 14, N
         43    2.215E+03                                 F               0         Blade 1 X force, node 15, N
         44   -1.611E+01                                 F               0         Blade 1 Y force, node 15, N
         45   -9.157E+02                                 F               0         Blade 1 Z force, node 15, N
         46    2.348E+03                                 F               0         Blade 1 X force, node 16, N
         47   -2.319E+01                                 F               0         Blade 1 Y force, node 16, N
         48   -1.000E+03                                 F               0         Blade 1 Z force, node 16, N
         49    2.882E+03                                 F               0         Blade 1 X force, node 17, N
         50   -3.470E+01                                 F               0         Blade 1 Y force, node 17, N
         51   -1.257E+03                                 F               0         Blade 1 Z force, node 17, N
         52    2.234E+03                                 F               0         Blade 1 X force, node 18, N
         53   -2.528E+01                                 F               0         Blade 1 Y force, node 18, N
         54   -9.670E+02                                 F               0         Blade 1 Z force, node 18, N
         55    2.795E+03                                 F               0         Blade 1 X force, node 19, N
         56   -2.715E+01                                 F               0         Blade 1 Y force, node 19, N
         57   -1.188E+03                                 F               0         Blade 1 Z force, node 19, N
         58    2.424E+03                                 F               0         Blade 1 X force, node 20, N
         59   -2.010E+01                                 F               0         Blade 1 Y force, node 20, N
         60   -1.014E+03                                 F               0         Blade 1 Z force, node 20, N
         61    3.648E+03                                 F               0         Blade 1 X force, node 21, N
         62   -2.437E+01                                 F               0         Blade 1 Y force, node 21, N
         63   -1.498E+03                                 F               0         Blade 1 Z force, node 21, N
         64    3.278E+03                                 F               0         Blade 1 X force, node 22, N
         65   -1.655E+01                                 F               0         Blade 1 Y force, node 22, N
         66   -1.320E+03                                 F               0         Blade 1 Z force, node 22, N
         67    3.419E+03                                 F               0         Blade 1 X force, node 23, N
         68   -1.251E+01                                 F               0         Blade 1 Y force, node 23, N
         69   -1.354E+03                                 F               0         Blade 1 Z force, node 23, N
         70    3.621E+03                                 F               0         Blade 1 X force, node 24, N
         71   -8.544E+00                                 F               0         Blade 1 Y force, node 24, N
         72   -1.411E+03                                 F               0         Blade 1 Z force, node 24, N
         73    3.760E+03                                 F               0         Blade 1 X force, node 25, N
         74   -4.006E+00                                 F               0         Blade 1 Y force, node 25, N
         75   -1.442E+03                                 F               0         Blade 1 Z force, node 25, N
         76    3.919E+03                                 F               0         Blade 1 X force, node 26, N
         77    5.693E-01                                 F               0         Blade 1 Y force, node 26, N
         78   -1.480E+03                                 F               0         Blade 1 Z force, node 26, N
         79    4.752E+03                                 F               0         Blade 1 X force, node 27, N
         80    6.339E+00                                 F               0         Blade 1 Y force, node 27, N
         81   -1.768E+03                                 F               0         Blade 1 Z force, node 27, N
         82    3.562E+03                                 F               0         Blade 1 X force, node 28, N
         83    8.804E+00                                 F               0         Blade 1 Y force, node 28, N
         84   -1.306E+03                                 F               0         Blade 1 Z force, node 28, N
         85    4.396E+03                                 F               0         Blade 1 X force, node 29, N
         86    1.493E+01                                 F               0         Blade 1 Y force, node 29, N
         87   -1.592E+03                                 F               0         Blade 1 Z force, node 29, N
         88    3.770E+03                                 F               0         Blade 1 X force, node 30, N
         89    1.606E+01                                 F               0         Blade 1 Y force, node 30, N
         90   -1.350E+03                                 F               0         Blade 1 Z force, node 30, N
         91    5.497E+03                                 F               0         Blade 1 X force, node 31, N
         92    2.878E+01                                 F               0         Blade 1 Y force, node 31, N
         93   -1.942E+03                                 F               0         Blade 1 Z force, node 31, N
         94    4.870E+03                                 F               0         Blade 1 X force, node 32, N
         95    3.019E+01                                 F               0         Blade 1 Y force, node 32, N
         96   -1.698E+03                                 F               0         Blade 1 Z force, node 32, N
         97    5.027E+03                                 F               0         Blade 1 X force, node 33, N
         98    3.544E+01                                 F               0         Blade 1 Y force, node 33, N
         99   -1.732E+03                                 F               0         Blade 1 Z force, node 33, N
        100    5.184E+03                                 F               0         Blade 1 X force, node 34, N
        101    4.073E+01                                 F               0         Blade 1 Y force, node 34, N
        102   -1.766E+03                                 F               0         Blade 1 Z force, node 34, N
        103    5.342E+03                                 F               0         Blade 1 X force, node 35, N
        104    4.616E+01                                 F               0         Blade 1 Y force, node 35, N
        105   -1.800E+03                                 F               0         Blade 1 Z force, node 35, N
        106    5.497E+03                                 F               0         Blade 1 X force, node 36, N
        107    5.161E+01                                 F               0         Blade 1 Y force, node 36, N
        108   -1.833E+03                                 F               0         Blade 1 Z force, node 36, N
        109    6.617E+03                                 F               0         Blade 1 X force, node 37, N
        110    6.709E+01                                 F               0         Blade 1 Y force, node 37, N
        111   -2.182E+03                                 F               0         Blade 1 Z force, node 37, N
        112    4.847E+03                                 F               0         Blade 1 X force, node 38, N
        113    5.260E+01                                 F               0         Blade 1 Y force, node 38, N
        114   -1.582E+03                                 F               0         Blade 1 Z force, node 38, N
        115    5.968E+03                                 F               0         Blade 1 X force, node 39, N
        116    6.822E+01                                 F               0         Blade 1 Y force, node 39, N
        117   -1.931E+03                                 F               0         Blade 1 Z force, node 39, N
        118    5.111E+03                                 F               0         Blade 1 X force, node 40, N
        119    6.126E+01                                 F               0         Blade 1 Y force, node 40, N
        120   -1.640E+03                                 F               0         Blade 1 Z force, node 40, N
        121    7.296E+03                                 F               0         Blade 1 X force, node 41, N
        122    9.203E+01                                 F               0         Blade 1 Y force, node 41, N
        123   -2.319E+03                                 F               0         Blade 1 Z force, node 41, N
        124    6.436E+03                                 F               0         Blade 1 X force, node 42, N
        125    8.521E+01                                 F               0         Blade 1 Y force, node 42, N
        126   -2.026E+03                                 F               0         Blade 1 Z force, node 42, N
        127    6.590E+03                                 F               0         Blade 1 X force, node 43, N
        128    9.095E+01                                 F               0         Blade 1 Y force, node 43, N
        129   -2.057E+03                                 F               0         Blade 1 Z force, node 43, N
        130    6.780E+03                                 F               0         Blade 1 X force, node 44, N
        131    9.723E+01                                 F               0         Blade 1 Y force, node 44, N
        132   -2.099E+03                                 F               0         Blade 1 Z force, node 44, N
        133    6.862E+03                                 F               0         Blade 1 X force, node 45, N
        134    1.020E+02                                 F               0         Blade 1 Y force, node 45, N
        135   -2.107E+03                                 F               0         Blade 1 Z force, node 45, N
        136    7.052E+03                                 F               0         Blade 1 X force, node 46, N
        137    1.083E+02                                 F               0         Blade 1 Y force, node 46, N
        138   -2.148E+03                                 F               0         Blade 1 Z force, node 46, N
        139    8.472E+03                                 F               0         Blade 1 X force, node 47, N
        140    1.345E+02                                 F               0         Blade 1 Y force, node 47, N
        141   -2.560E+03                                 F               0         Blade 1 Z force, node 47, N
        142    6.093E+03                                 F               0         Blade 1 X force, node 48, N
        143    9.971E+01                                 F               0         Blade 1 Y force, node 48, N
        144   -1.827E+03                                 F               0         Blade 1 Z force, node 48, N
        145    7.511E+03                                 F               0         Blade 1 X force, node 49, N
        146    1.259E+02                                 F               0         Blade 1 Y force, node 49, N
        147   -2.238E+03                                 F               0         Blade 1 Z force, node 49, N
        148    6.443E+03                                 F               0         Blade 1 X force, node 50, N
        149    1.105E+02                                 F               0         Blade 1 Y force, node 50, N
        150   -1.908E+03                                 F               0         Blade 1 Z force, node 50, N
        151    9.038E+03                                 F               0         Blade 1 X force, node 51, N
        152    1.590E+02                                 F               0         Blade 1 Y force, node 51, N
        153   -2.657E+03                                 F               0         Blade 1 Z force, node 51, N
        154    7.972E+03                                 F               0         Blade 1 X force, node 52, N
        155    1.437E+02                                 F               0         Blade 1 Y force, node 52, N
        156   -2.327E+03                                 F               0         Blade 1 Z force, node 52, N
        157    8.126E+03                                 F               0         Blade 1 X force, node 53, N
        158    1.497E+02                                 F               0         Blade 1 Y force, node 53, N
        159   -2.357E+03                                 F               0         Blade 1 Z force, node 53, N
        160    8.371E+03                                 F               0         Blade 1 X force, node 54, N
        161    1.574E+02                                 F               0         Blade 1 Y force, node 54, N
        162   -2.412E+03                                 F               0         Blade 1 Z force, node 54, N
        163    8.342E+03                                 F               0         Blade 1 X force, node 55, N
        164    1.599E+02                                 F               0         Blade 1 Y force, node 55, N
        165   -2.389E+03                                 F               0         Blade 1 Z force, node 55, N
        166    8.587E+03                                 F               0         Blade 1 X force, node 56, N
        167    1.676E+02                                 F               0         Blade 1 Y force, node 56, N
        168   -2.444E+03                                 F               0         Blade 1 Z force, node 56, N
        169    1.032E+04                                 F               0         Blade 1 X force, node 57, N
        170    2.053E+02                                 F               0         Blade 1 Y force, node 57, N
        171   -2.920E+03                                 F               0         Blade 1 Z force, node 57, N
        172    7.309E+03                                 F               0         Blade 1 X force, node 58, N
        173    1.480E+02                                 F               0         Blade 1 Y force, node 58, N
        174   -2.056E+03                                 F               0         Blade 1 Z force, node 58, N
        175    9.045E+03                                 F               0         Blade 1 X force, node 59, N
        176    1.857E+02                                 F               0         Blade 1 Y force, node 59, N
        177   -2.531E+03                                 F               0         Blade 1 Z force, node 59, N
        178    7.789E+03                                 F               0         Blade 1 X force, node 60, N
        179    1.621E+02                                 F               0         Blade 1 Y force, node 60, N
        180   -2.169E+03                                 F               0         Blade 1 Z force, node 60, N
        181    1.076E+04                                 F               0         Blade 1 X force, node 61, N
        182    2.275E+02                                 F               0         Blade 1 Y force, node 61, N
        183   -2.980E+03                                 F               0         Blade 1 Z force, node 61, N
        184    9.499E+03                                 F               0         Blade 1 X force, node 62, N