
Linearized model: Predictions were generated on 06-Feb-2024 at 08:44:08 using OpenFAST, compiled as a 64-bit application using single precision at commit v3.5.1
 linked with  NWTC Subroutine Library; ElastoDyn; InflowWind; AeroDyn; ServoDyn; HydroDyn; MAP++ (<1.20.10>, <Oct-20-2023>)

Description from the FAST input file: CCT-9 Campign 4 model. Input files to be run with OpenFAST 3.5.0. GitHub branch from Lu Wang (https://github.com/luwang00/openfast/tree/dev) compiled on March 7, 2023.

Simulation information:
   Simulation time:                  2500.0000 s
   Rotor Speed:                         0.8859 rad/s
   Azimuth:                             3.1506 rad
   Wind Speed:                         10.0000 m/s
   Number of continuous states:         0
   Number of discrete states:           0
   Number of constraint states:         0
   Number of inputs:                    9
   Number of outputs:                   3
   Jacobians included in this file?    No

Order of inputs:
     Column   Operating Point                     Rotating Frame? Derivative Order Description
   ---------- ---------------                     --------------- ---------------- -----------
          1    1.131E+01                                 F               0         PtFairDisplacement X translation displacement, node 1, m
          2    4.015E-02                                 F               0         PtFairDisplacement Y translation displacement, node 1, m
          3   -2.351E+00                                 F               0         PtFairDisplacement Z translation displacement, node 1, m
          4    1.120E+01                                 F               0         PtFairDisplacement X translation displacement, node 2, m
          5    4.006E-02                                 F               0         PtFairDisplacement Y translation displacement, node 2, m
          6   -2.438E+00                                 F               0         PtFairDisplacement Z translation displacement, node 2, m
          7    1.153E+01                                 F               0         PtFairDisplacement X translation displacement, node 3, m
          8   -4.523E-02                                 F               0         PtFairDisplacement Y translation displacement, node 3, m
          9    4.561E+00                                 F               0         PtFairDisplacement Z translation displacement, node 3, m

Order of outputs:
        Row   Operating Point                     Rotating Frame? Derivative Order Description
   ---------- ---------------                     --------------- ---------------- -----------
          1    3.411E+06                                 F               0         T[1], [N]
          2    3.404E+06                                 F               0         T[2], [N]
          3    4.836E+06                                 F               0         T[3], [N]


Linearized state matrices:

D: 3 x 9
   -6.158E+04  1.139E+05 -1.480E+03  0.000E+00  0.000E+00  0.000E+00  0.000E+00  0.000E+00  0.000E+00
    0.000E+00  0.000E+00  0.000E+00 -6.155E+04 -1.137E+05 -1.455E+03  0.000E+00  0.000E+00  0.000E+00
    0.000E+00  0.000E+00  0.000E+00  0.000E+00  0.000E+00  0.000E+00  1.229E+05 -3.990E+01  4.586E+03
