
Linearized model: Predictions were generated on 13-Feb-2024 at 12:12:09 using OpenFAST, compiled as a 64-bit application using single precision at commit v3.5.1
 linked with  NWTC Subroutine Library; ElastoDyn; InflowWind; AeroDyn; ServoDyn; HydroDyn; MAP++ (<1.20.10>, <Oct-20-2023>)

Description from the FAST input file: CCT-9 Campign 4 model. Input files to be run with OpenFAST 3.5.0. GitHub branch from Lu Wang (https://github.com/luwang00/openfast/tree/dev) compiled on March 7, 2023.

Simulation information:
   Simulation time:                   776.8500 s
   Rotor Speed:                         0.7923 rad/s
   Azimuth:                             5.0797 rad
   Wind Speed:                         24.0000 m/s
   Number of continuous states:         0
   Number of discrete states:           0
   Number of constraint states:         0
   Number of inputs:                 1746
   Number of outputs:                   4
   Jacobians included in this file?    No

Order of inputs:
     Column   Operating Point                                                   Rotating Frame? Derivative Order Description
   ---------- ---------------                                                   --------------- ---------------- -----------
          1     8.55535602570E+000                                                     F               0         Tower X translation displacement, node 1, m
          2    -1.82353436947E+000                                                     F               0         Tower Y translation displacement, node 1, m
          3    -2.25395902991E-001                                                     F               0         Tower Z translation displacement, node 1, m
          4     9.72849464417E+000                                                     F               0         Tower X translation displacement, node 2, m
          5    -2.50000357628E+000                                                     F               0         Tower Y translation displacement, node 2, m
          6    -2.99838960171E-001                                                     F               0         Tower Z translation displacement, node 2, m
          7     1.09199514389E+001                                                     F               0         Tower X translation displacement, node 3, m
          8    -3.18391728401E+000                                                     F               0         Tower Y translation displacement, node 3, m
          9    -3.76454055309E-001                                                     F               0         Tower Z translation displacement, node 3, m
         10     1.21251306534E+001                                                     F               0         Tower X translation displacement, node 4, m
         11    -3.87396073341E+000                                                     F               0         Tower Y translation displacement, node 4, m
         12    -4.54751312733E-001                                                     F               0         Tower Z translation displacement, node 4, m
         13     1.33414688110E+001                                                     F               0         Tower X translation displacement, node 5, m
         14    -4.56954765320E+000                                                     F               0         Tower Y translation displacement, node 5, m
         15    -5.34459114075E-001                                                     F               0         Tower Z translation displacement, node 5, m
         16     1.45665769577E+001                                                     F               0         Tower X translation displacement, node 6, m
         17    -5.27005624771E+000                                                     F               0         Tower Y translation displacement, node 6, m
         18    -6.15329682827E-001                                                     F               0         Tower Z translation displacement, node 6, m
         19     1.57978782654E+001                                                     F               0         Tower X translation displacement, node 7, m
         20    -5.97451925278E+000                                                     F               0         Tower Y translation displacement, node 7, m
         21    -6.97032034397E-001                                                     F               0         Tower Z translation displacement, node 7, m
         22     1.70341567993E+001                                                     F               0         Tower X translation displacement, node 8, m
         23    -6.68262434006E+000                                                     F               0         Tower Y translation displacement, node 8, m
         24    -7.79456436634E-001                                                     F               0         Tower Z translation displacement, node 8, m
         25     1.82738037109E+001                                                     F               0         Tower X translation displacement, node 9, m
         26    -7.39361906052E+000                                                     F               0         Tower Y translation displacement, node 9, m
         27    -8.62378478050E-001                                                     F               0         Tower Z translation displacement, node 9, m
         28     1.95155105591E+001                                                     F               0         Tower X translation displacement, node 10, m
         29    -8.10670471191E+000                                                     F               0         Tower Y translation displacement, node 10, m
         30    -9.45636332035E-001                                                     F               0         Tower Z translation displacement, node 10, m
         31     2.07582359314E+001                                                     F               0         Tower X translation displacement, node 11, m
         32    -8.82109928131E+000                                                     F               0         Tower Y translation displacement, node 11, m
         33    -1.02907037735E+000                                                     F               0         Tower Z translation displacement, node 11, m
         34     9.95468556881E-001,  -6.65915990248E-003,  -9.48578789830E-002         F               0         Tower X orientation angle, node 1, rad
         35     1.17913689464E-002,   9.98490333557E-001,   5.36468960345E-002         F               0         Tower Y orientation angle, node 1, rad
         36     9.43574309349E-002,  -5.45223020017E-002,   9.94044244289E-001         F               0         Tower Z orientation angle, node 1, rad
         37     9.95334148407E-001,  -6.58167805523E-003,  -9.62632223964E-002         F               0         Tower X orientation angle, node 2, rad
         38     1.18434661999E-002,   9.98460292816E-001,   5.41916489601E-002         F               0         Tower Y orientation angle, node 2, rad
         39     9.57583338022E-002,  -5.50788864493E-002,   9.93879616261E-001         F               0         Tower Z orientation angle, node 2, rad
         40     9.95216012001E-001,  -6.51379721239E-003,  -9.74818766117E-002         F               0         Tower X orientation angle, node 3, rad
         41     1.18925105780E-002,   9.98432159424E-001,   5.46976849437E-002         F               0         Tower Y orientation angle, node 3, rad
         42     9.69727486372E-002,  -5.55953122675E-002,   9.93733108044E-001         F               0         Tower Z orientation angle, node 3, rad
         43     9.95116591454E-001,  -6.45680027083E-003,  -9.84949544072E-002         F               0         Tower X orientation angle, node 4, rad
         44     1.19377877563E-002,   9.98406171799E-001,   5.51599971950E-002         F               0         Tower Y orientation angle, node 4, rad
         45     9.79818105698E-002,  -5.60664422810E-002,   9.93607640266E-001         F               0         Tower Z orientation angle, node 4, rad
         46     9.95035707951E-001,  -6.41038455069E-003,  -9.93118956685E-002         F               0         Tower X orientation angle, node 5, rad
         47     1.19789103046E-002,   9.98382568359E-001,   5.55766969919E-002         F               0         Tower Y orientation angle, node 5, rad
         48     9.87949967384E-002,  -5.64904473722E-002,   9.93503093719E-001         F               0         Tower Z orientation angle, node 5, rad
         49     9.94972288609E-001,  -6.37389533222E-003,  -9.99478250742E-002         F               0         Tower X orientation angle, node 6, rad
         50     1.20154237375E-002,   9.98361587524E-001,   5.59448003769E-002         F               0         Tower Y orientation angle, node 6, rad
         51     9.94274765253E-002,  -5.68644404411E-002,   9.93418633938E-001         F               0         Tower Z orientation angle, node 6, rad
         52     9.94925856590E-001,  -6.34707650170E-003,  -1.00410431623E-001         F               0         Tower X orientation angle, node 7, rad
         53     1.20463771746E-002,   9.98343706131E-001,   5.62559887767E-002         F               0         Tower Y orientation angle, node 7, rad
         54     9.98870581388E-002,  -5.71801178157E-002,   9.93354439735E-001         F               0         Tower Z orientation angle, node 7, rad
         55     9.94892954826E-001,  -6.32795412093E-003,  -1.00736945868E-001         F               0         Tower X orientation angle, node 8, rad
         56     1.20717249811E-002,   9.98329043388E-001,   5.65104931593E-002         F               0         Tower Y orientation angle, node 8, rad
         57     1.00211016834E-001,  -5.74379600585E-002,   9.93306934834E-001         F               0         Tower Z orientation angle, node 8, rad
         58     9.94871377945E-001,  -6.31531281397E-003,  -1.00950531662E-001         F               0         Tower X orientation angle, node 9, rad
         59     1.20910760015E-002,   9.98317778111E-001,   5.67047633231E-002         F               0         Tower Y orientation angle, node 9, rad
         60     1.00422605872E-001,  -5.76345510781E-002,   9.93274152279E-001         F               0         Tower Z orientation angle, node 9, rad
         61     9.94858920574E-001,  -6.30794605240E-003,  -1.01073652506E-001         F               0         Tower X orientation angle, node 10, rad
         62     1.21041359380E-002,   9.98310148716E-001,   5.68359903991E-002         F               0         Tower Y orientation angle, node 10, rad
         63     1.00544340909E-001,  -5.77672012150E-002,   9.93254125118E-001         F               0         Tower Z orientation angle, node 10, rad
         64     9.94853019714E-001,  -6.30440888926E-003,  -1.01132087409E-001         F               0         Tower X orientation angle, node 11, rad
         65     1.21114216745E-002,   9.98305916786E-001,   5.69093003869E-002         F               0         Tower Y orientation angle, node 11, rad
         66     1.00601978600E-001,  -5.78412450850E-002,   9.93243992329E-001         F               0         Tower Z orientation angle, node 11, rad
         67     9.76583547890E-003                                                     F               0         Tower X translation velocity, node 1, m/s
         68     4.79710695799E-004                                                     F               0         Tower Y translation velocity, node 1, m/s
         69    -5.55633939803E-003                                                     F               0         Tower Z translation velocity, node 1, m/s
         70     1.19815226644E-002                                                     F               0         Tower X translation velocity, node 2, m/s
         71     3.69566609152E-004                                                     F               0         Tower Y translation velocity, node 2, m/s
         72    -5.77377201989E-003                                                     F               0         Tower Z translation velocity, node 2, m/s
         73     1.24554093927E-002                                                     F               0         Tower X translation velocity, node 3, m/s
         74     6.23653468210E-004                                                     F               0         Tower Y translation velocity, node 3, m/s
         75    -5.80560835078E-003                                                     F               0         Tower Z translation velocity, node 3, m/s
         76     1.15653015673E-002                                                     F               0         Tower X translation velocity, node 4, m/s
         77     1.17412779946E-003                                                     F               0         Tower Y translation velocity, node 4, m/s
         78    -5.68730803207E-003                                                     F               0         Tower Z translation velocity, node 4, m/s
         79     9.50590334833E-003                                                     F               0         Tower X translation velocity, node 5, m/s
         80     1.98947847821E-003                                                     F               0         Tower Y translation velocity, node 5, m/s
         81    -5.43707190081E-003                                                     F               0         Tower Z translation velocity, node 5, m/s
         82     6.46631047130E-003                                                     F               0         Tower X translation velocity, node 6, m/s
         83     3.03724524565E-003                                                     F               0         Tower Y translation velocity, node 6, m/s
         84    -5.07392035797E-003                                                     F               0         Tower Z translation velocity, node 6, m/s
         85     2.68284860067E-003                                                     F               0         Tower X translation velocity, node 7, m/s
         86     4.26956685260E-003                                                     F               0         Tower Y translation velocity, node 7, m/s
         87    -4.62368782610E-003                                                     F               0         Tower Z translation velocity, node 7, m/s
         88    -1.74971728120E-003                                                     F               0         Tower X translation velocity, node 8, m/s
         89     5.67024946213E-003                                                     F               0         Tower Y translation velocity, node 8, m/s
         90    -4.09646844491E-003                                                     F               0         Tower Z translation velocity, node 8, m/s
         91    -6.66869478300E-003                                                     F               0         Tower X translation velocity, node 9, m/s
         92     7.20311189070E-003                                                     F               0         Tower Y translation velocity, node 9, m/s
         93    -3.51090054028E-003                                                     F               0         Tower Z translation velocity, node 9, m/s
         94    -1.19227794930E-002                                                     F               0         Tower X translation velocity, node 10, m/s
         95     8.83093103766E-003                                                     F               0         Tower Y translation velocity, node 10, m/s
         96    -2.88480054587E-003                                                     F               0         Tower Z translation velocity, node 10, m/s
         97    -1.73736549914E-002                                                     F               0         Tower X translation velocity, node 11, m/s
         98     1.05178747326E-002                                                     F               0         Tower Y translation velocity, node 11, m/s
         99    -2.23470455967E-003                                                     F               0         Tower Z translation velocity, node 11, m/s
        100     2.16035690308E+001                                                     F               0         Hub X translation displacement, node 1, m
        101    -9.20707225800E+000                                                     F               0         Hub Y translation displacement, node 1, m
        102     1.01769138128E-002                                                     F               0         Hub Z translation displacement, node 1, m
        103     9.78887379169E-001,  -2.23815994104E-004,  -2.04400345683E-001         F               0         Hub X orientation angle, node 1, rad
        104    -1.86082199216E-001,   4.12796109915E-001,  -8.91612470150E-001         F               0         Hub Y orientation angle, node 1, rad
        105     8.45752283931E-002,   9.10823404789E-001,   4.04039233923E-001         F               0         Hub Z orientation angle, node 1, rad
        106     7.75479018688E-001                                                     F               0         Hub X rotation velocity, node 1, rad/s
        107    -6.25565240625E-004                                                     F               0         Hub Y rotation velocity, node 1, rad/s
        108    -1.61944478750E-001                                                     F               0         Hub Z rotation velocity, node 1, rad/s
        109     9.90721106529E-001,  -1.20163291693E-001,   6.35014548898E-002         F               0         Blade root 1 X orientation angle, node 1, rad
        110     1.06389299035E-001,   3.94919574261E-001,  -9.12534832954E-001         F               0         Blade root 1 Y orientation angle, node 1, rad
        111     8.45752283931E-002,   9.10823404789E-001,   4.04039233923E-001         F               0         Blade root 1 Z orientation angle, node 1, rad
        112     8.88331174850E-001,  -1.69445782900E-001,  -4.26797270775E-001         F               0         Blade root 2 X orientation angle, node 1, rad
        113     4.43552762270E-001,   5.57203531265E-001,   7.01986551285E-001         F               0         Blade root 2 Y orientation angle, node 1, rad
        114     1.18864290416E-001,  -8.12903642654E-001,   5.70139408112E-001         F               0         Blade root 2 Z orientation angle, node 1, rad
        115     9.30897414684E-001,   2.88966596127E-001,  -2.23446547985E-001         F               0         Blade root 3 X orientation angle, node 1, rad
        116     3.03384929895E-001,  -9.52318251133E-001,   3.23660522699E-002         F               0         Blade root 3 Y orientation angle, node 1, rad
        117    -2.03439518809E-001,  -9.79197919369E-002,  -9.74178671837E-001         F               0         Blade root 3 Z orientation angle, node 1, rad
        118     2.14930267334E+001                                                     F               0         Blade 1 X translation displacement, node 1, m
        119    -4.16111087799E+000                                                     F               0         Blade 1 Y translation displacement, node 1, m
        120    -3.26110458374E+000                                                     F               0         Blade 1 Z translation displacement, node 1, m
        121     2.14663925171E+001                                                     F               0         Blade 1 X translation displacement, node 2, m
        122    -2.94524717331E+000                                                     F               0         Blade 1 Y translation displacement, node 2, m
        123    -4.04934120178E+000                                                     F               0         Blade 1 Z translation displacement, node 2, m
        124     2.11041927338E+001                                                     F               0         Blade 1 X translation displacement, node 3, m
        125     1.35883903503E+001                                                     F               0         Blade 1 Y translation displacement, node 3, m
        126    -1.47680196762E+001                                                     F               0         Blade 1 Z translation displacement, node 3, m
        127     2.10270233154E+001                                                     F               0         Blade 1 X translation displacement, node 4, m
        128     1.71109790802E+001                                                     F               0         Blade 1 Y translation displacement, node 4, m
        129    -1.70517044067E+001                                                     F               0         Blade 1 Z translation displacement, node 4, m
        130     2.09498405457E+001                                                     F               0         Blade 1 X translation displacement, node 5, m
        131     2.06342391968E+001                                                     F               0         Blade 1 Y translation displacement, node 5, m
        132    -1.93358097076E+001                                                     F               0         Blade 1 Z translation displacement, node 5, m
        133     2.08726711273E+001                                                     F               0         Blade 1 X translation displacement, node 6, m
        134     2.41568412781E+001                                                     F               0         Blade 1 Y translation displacement, node 6, m
        135    -2.16195049286E+001                                                     F               0         Blade 1 Z translation displacement, node 6, m
        136     2.07955017090E+001                                                     F               0         Blade 1 X translation displacement, node 7, m
        137     2.76794567108E+001                                                     F               0         Blade 1 Y translation displacement, node 7, m
        138    -2.39031944275E+001                                                     F               0         Blade 1 Z translation displacement, node 7, m
        139     2.07183189392E+001                                                     F               0         Blade 1 X translation displacement, node 8, m
        140     3.12027015686E+001                                                     F               0         Blade 1 Y translation displacement, node 8, m
        141    -2.61873054504E+001                                                     F               0         Blade 1 Z translation displacement, node 8, m
        142     2.06411495209E+001                                                     F               0         Blade 1 X translation displacement, node 9, m
        143     3.47253189087E+001                                                     F               0         Blade 1 Y translation displacement, node 9, m
        144    -2.84709930420E+001                                                     F               0         Blade 1 Z translation displacement, node 9, m
        145     2.05639801025E+001                                                     F               0         Blade 1 X translation displacement, node 10, m
        146     3.82479209900E+001                                                     F               0         Blade 1 Y translation displacement, node 10, m
        147    -3.07546882629E+001                                                     F               0         Blade 1 Z translation displacement, node 10, m
        148     2.04868106842E+001                                                     F               0         Blade 1 X translation displacement, node 11, m
        149     4.17705383301E+001                                                     F               0         Blade 1 Y translation displacement, node 11, m
        150    -3.30383758545E+001                                                     F               0         Blade 1 Z translation displacement, node 11, m
        151     2.04096279144E+001                                                     F               0         Blade 1 X translation displacement, node 12, m
        152     4.52937698364E+001                                                     F               0         Blade 1 Y translation displacement, node 12, m
        153    -3.53224792480E+001                                                     F               0         Blade 1 Z translation displacement, node 12, m
        154     2.03324584961E+001                                                     F               0         Blade 1 X translation displacement, node 13, m
        155     4.88163871765E+001                                                     F               0         Blade 1 Y translation displacement, node 13, m
        156    -3.76061668396E+001                                                     F               0         Blade 1 Z translation displacement, node 13, m
        157     2.02552909851E+001                                                     F               0         Blade 1 X translation displacement, node 14, m
        158     5.23389892578E+001                                                     F               0         Blade 1 Y translation displacement, node 14, m
        159    -3.98898620605E+001                                                     F               0         Blade 1 Z translation displacement, node 14, m
        160     2.01781063080E+001                                                     F               0         Blade 1 X translation displacement, node 15, m
        161     5.58622436523E+001                                                     F               0         Blade 1 Y translation displacement, node 15, m
        162    -4.21739692688E+001                                                     F               0         Blade 1 Z translation displacement, node 15, m
        163     2.01009387970E+001                                                     F               0         Blade 1 X translation displacement, node 16, m
        164     5.93848495483E+001                                                     F               0         Blade 1 Y translation displacement, node 16, m
        165    -4.44576644897E+001                                                     F               0         Blade 1 Z translation displacement, node 16, m
        166     2.00237693787E+001                                                     F               0         Blade 1 X translation displacement, node 17, m
        167     6.29074707031E+001                                                     F               0         Blade 1 Y translation displacement, node 17, m
        168    -4.67413520813E+001                                                     F               0         Blade 1 Z translation displacement, node 17, m
        169     1.99465999603E+001                                                     F               0         Blade 1 X translation displacement, node 18, m
        170     6.64300765991E+001                                                     F               0         Blade 1 Y translation displacement, node 18, m
        171    -4.90250473022E+001                                                     F               0         Blade 1 Z translation displacement, node 18, m
        172     1.98694171906E+001                                                     F               0         Blade 1 X translation displacement, node 19, m
        173     6.99533081055E+001                                                     F               0         Blade 1 Y translation displacement, node 19, m
        174    -5.13091468811E+001                                                     F               0         Blade 1 Z translation displacement, node 19, m
        175     1.97922458649E+001                                                     F               0         Blade 1 X translation displacement, node 20, m
        176     7.34759292603E+001                                                     F               0         Blade 1 Y translation displacement, node 20, m
        177    -5.35928306580E+001                                                     F               0         Blade 1 Z translation displacement, node 20, m
        178     1.97150783539E+001                                                     F               0         Blade 1 X translation displacement, node 21, m
        179     7.69985351562E+001                                                     F               0         Blade 1 Y translation displacement, node 21, m
        180    -5.58765296936E+001                                                     F               0         Blade 1 Z translation displacement, node 21, m
        181     1.96378955841E+001                                                     F               0         Blade 1 X translation displacement, node 22, m
        182     8.05217819214E+001                                                     F               0         Blade 1 Y translation displacement, node 22, m
        183    -5.81606369019E+001                                                     F               0         Blade 1 Z translation displacement, node 22, m