
Linearized model: Predictions were generated on 12-Feb-2024 at 15:30:16 using OpenFAST, compiled as a 64-bit application using single precision at commit v3.5.1
 linked with  NWTC Subroutine Library; ElastoDyn; InflowWind; AeroDyn; ServoDyn; HydroDyn; MAP++ (<1.20.10>, <Oct-20-2023>)

Description from the FAST input file: CCT-9 Campign 4 model. Input files to be run with OpenFAST 3.5.0. GitHub branch from Lu Wang (https://github.com/luwang00/openfast/tree/dev) compiled on March 7, 2023.

Simulation information:
   Simulation time:                  1006.9750 s
   Rotor Speed:                         1.0417 rad/s
   Azimuth:                             2.0211 rad
   Wind Speed:                         12.0000 m/s
   Number of continuous states:         0
   Number of discrete states:           0
   Number of constraint states:         0
   Number of inputs:                  303
   Number of outputs:                   1
   Jacobians included in this file?    No

Order of inputs:
     Column   Operating Point                     Rotating Frame? Derivative Order Description
   ---------- ---------------                     --------------- ---------------- -----------
          1   -1.080E+01                                 F               0         X-component position of node 1 (hub), m
          2    0.000E+00                                 F               0         Y-component position of node 1 (hub), m
          3    1.497E+02                                 F               0         Z-component position of node 1 (hub), m
          4    2.538E+01                                 F               0         X-component position of node 2 (blade 1, node 1), m
          5   -1.325E+01                                 F               0         Y-component position of node 2 (blade 1, node 1), m
          6    1.465E+02                                 F               0         Z-component position of node 2 (blade 1, node 1), m
          7    2.523E+01                                 F               0         X-component position of node 3 (blade 1, node 2), m
          8   -1.442E+01                                 F               0         Y-component position of node 3 (blade 1, node 2), m
          9    1.459E+02                                 F               0         Z-component position of node 3 (blade 1, node 2), m
         10    2.318E+01                                 F               0         X-component position of node 4 (blade 1, node 3), m
         11   -3.032E+01                                 F               0         Y-component position of node 4 (blade 1, node 3), m
         12    1.373E+02                                 F               0         Z-component position of node 4 (blade 1, node 3), m
         13    2.275E+01                                 F               0         X-component position of node 5 (blade 1, node 4), m
         14   -3.371E+01                                 F               0         Y-component position of node 5 (blade 1, node 4), m
         15    1.355E+02                                 F               0         Z-component position of node 5 (blade 1, node 4), m
         16    2.231E+01                                 F               0         X-component position of node 6 (blade 1, node 5), m
         17   -3.710E+01                                 F               0         Y-component position of node 6 (blade 1, node 5), m
         18    1.337E+02                                 F               0         Z-component position of node 6 (blade 1, node 5), m
         19    2.188E+01                                 F               0         X-component position of node 7 (blade 1, node 6), m
         20   -4.048E+01                                 F               0         Y-component position of node 7 (blade 1, node 6), m
         21    1.319E+02                                 F               0         Z-component position of node 7 (blade 1, node 6), m
         22    2.144E+01                                 F               0         X-component position of node 8 (blade 1, node 7), m
         23   -4.387E+01                                 F               0         Y-component position of node 8 (blade 1, node 7), m
         24    1.301E+02                                 F               0         Z-component position of node 8 (blade 1, node 7), m
         25    2.100E+01                                 F               0         X-component position of node 9 (blade 1, node 8), m
         26   -4.726E+01                                 F               0         Y-component position of node 9 (blade 1, node 8), m
         27    1.283E+02                                 F               0         Z-component position of node 9 (blade 1, node 8), m
         28    2.057E+01                                 F               0         X-component position of node 10 (blade 1, node 9), m
         29   -5.065E+01                                 F               0         Y-component position of node 10 (blade 1, node 9), m
         30    1.265E+02                                 F               0         Z-component position of node 10 (blade 1, node 9), m
         31    2.013E+01                                 F               0         X-component position of node 11 (blade 1, node 10), m
         32   -5.404E+01                                 F               0         Y-component position of node 11 (blade 1, node 10), m
         33    1.246E+02                                 F               0         Z-component position of node 11 (blade 1, node 10), m
         34    1.970E+01                                 F               0         X-component position of node 12 (blade 1, node 11), m
         35   -5.742E+01                                 F               0         Y-component position of node 12 (blade 1, node 11), m
         36    1.228E+02                                 F               0         Z-component position of node 12 (blade 1, node 11), m
         37    1.926E+01                                 F               0         X-component position of node 13 (blade 1, node 12), m
         38   -6.081E+01                                 F               0         Y-component position of node 13 (blade 1, node 12), m
         39    1.210E+02                                 F               0         Z-component position of node 13 (blade 1, node 12), m
         40    1.882E+01                                 F               0         X-component position of node 14 (blade 1, node 13), m
         41   -6.420E+01                                 F               0         Y-component position of node 14 (blade 1, node 13), m
         42    1.192E+02                                 F               0         Z-component position of node 14 (blade 1, node 13), m
         43    1.839E+01                                 F               0         X-component position of node 15 (blade 1, node 14), m
         44   -6.759E+01                                 F               0         Y-component position of node 15 (blade 1, node 14), m
         45    1.174E+02                                 F               0         Z-component position of node 15 (blade 1, node 14), m
         46    1.795E+01                                 F               0         X-component position of node 16 (blade 1, node 15), m
         47   -7.097E+01                                 F               0         Y-component position of node 16 (blade 1, node 15), m
         48    1.156E+02                                 F               0         Z-component position of node 16 (blade 1, node 15), m
         49    1.752E+01                                 F               0         X-component position of node 17 (blade 1, node 16), m
         50   -7.436E+01                                 F               0         Y-component position of node 17 (blade 1, node 16), m
         51    1.138E+02                                 F               0         Z-component position of node 17 (blade 1, node 16), m
         52    1.708E+01                                 F               0         X-component position of node 18 (blade 1, node 17), m
         53   -7.775E+01                                 F               0         Y-component position of node 18 (blade 1, node 17), m
         54    1.119E+02                                 F               0         Z-component position of node 18 (blade 1, node 17), m
         55    1.664E+01                                 F               0         X-component position of node 19 (blade 1, node 18), m
         56   -8.114E+01                                 F               0         Y-component position of node 19 (blade 1, node 18), m
         57    1.101E+02                                 F               0         Z-component position of node 19 (blade 1, node 18), m
         58    1.621E+01                                 F               0         X-component position of node 20 (blade 1, node 19), m
         59   -8.453E+01                                 F               0         Y-component position of node 20 (blade 1, node 19), m
         60    1.083E+02                                 F               0         Z-component position of node 20 (blade 1, node 19), m
         61    1.577E+01                                 F               0         X-component position of node 21 (blade 1, node 20), m
         62   -8.791E+01                                 F               0         Y-component position of node 21 (blade 1, node 20), m
         63    1.065E+02                                 F               0         Z-component position of node 21 (blade 1, node 20), m
         64    1.534E+01                                 F               0         X-component position of node 22 (blade 1, node 21), m
         65   -9.130E+01                                 F               0         Y-component position of node 22 (blade 1, node 21), m
         66    1.047E+02                                 F               0         Z-component position of node 22 (blade 1, node 21), m
         67    1.490E+01                                 F               0         X-component position of node 23 (blade 1, node 22), m
         68   -9.469E+01                                 F               0         Y-component position of node 23 (blade 1, node 22), m
         69    1.029E+02                                 F               0         Z-component position of node 23 (blade 1, node 22), m
         70    1.446E+01                                 F               0         X-component position of node 24 (blade 1, node 23), m
         71   -9.808E+01                                 F               0         Y-component position of node 24 (blade 1, node 23), m
         72    1.010E+02                                 F               0         Z-component position of node 24 (blade 1, node 23), m
         73    1.403E+01                                 F               0         X-component position of node 25 (blade 1, node 24), m
         74   -1.015E+02                                 F               0         Y-component position of node 25 (blade 1, node 24), m
         75    9.923E+01                                 F               0         Z-component position of node 25 (blade 1, node 24), m
         76    1.359E+01                                 F               0         X-component position of node 26 (blade 1, node 25), m
         77   -1.049E+02                                 F               0         Y-component position of node 26 (blade 1, node 25), m
         78    9.742E+01                                 F               0         Z-component position of node 26 (blade 1, node 25), m
         79    1.316E+01                                 F               0         X-component position of node 27 (blade 1, node 26), m
         80   -1.082E+02                                 F               0         Y-component position of node 27 (blade 1, node 26), m
         81    9.561E+01                                 F               0         Z-component position of node 27 (blade 1, node 26), m
         82    1.272E+01                                 F               0         X-component position of node 28 (blade 1, node 27), m
         83   -1.116E+02                                 F               0         Y-component position of node 28 (blade 1, node 27), m
         84    9.379E+01                                 F               0         Z-component position of node 28 (blade 1, node 27), m
         85    1.235E+01                                 F               0         X-component position of node 29 (blade 1, node 28), m
         86   -1.145E+02                                 F               0         Y-component position of node 29 (blade 1, node 28), m
         87    9.225E+01                                 F               0         Z-component position of node 29 (blade 1, node 28), m
         88    2.514E+01                                 F               0         X-component position of node 30 (blade 2, node 1), m
         89   -3.661E+00                                 F               0         Y-component position of node 30 (blade 2, node 1), m
         90    1.463E+02                                 F               0         Z-component position of node 30 (blade 2, node 1), m
         91    2.493E+01                                 F               0         X-component position of node 31 (blade 2, node 2), m
         92   -2.519E+00                                 F               0         Y-component position of node 31 (blade 2, node 2), m
         93    1.457E+02                                 F               0         Z-component position of node 31 (blade 2, node 2), m
         94    2.210E+01                                 F               0         X-component position of node 32 (blade 2, node 3), m
         95    1.301E+01                                 F               0         Y-component position of node 32 (blade 2, node 3), m
         96    1.367E+02                                 F               0         Z-component position of node 32 (blade 2, node 3), m
         97    2.150E+01                                 F               0         X-component position of node 33 (blade 2, node 4), m
         98    1.632E+01                                 F               0         Y-component position of node 33 (blade 2, node 4), m
         99    1.348E+02                                 F               0         Z-component position of node 33 (blade 2, node 4), m
        100    2.090E+01                                 F               0         X-component position of node 34 (blade 2, node 5), m
        101    1.963E+01                                 F               0         Y-component position of node 34 (blade 2, node 5), m
        102    1.329E+02                                 F               0         Z-component position of node 34 (blade 2, node 5), m
        103    2.029E+01                                 F               0         X-component position of node 35 (blade 2, node 6), m
        104    2.293E+01                                 F               0         Y-component position of node 35 (blade 2, node 6), m
        105    1.310E+02                                 F               0         Z-component position of node 35 (blade 2, node 6), m
        106    1.969E+01                                 F               0         X-component position of node 36 (blade 2, node 7), m
        107    2.624E+01                                 F               0         Y-component position of node 36 (blade 2, node 7), m
        108    1.291E+02                                 F               0         Z-component position of node 36 (blade 2, node 7), m
        109    1.909E+01                                 F               0         X-component position of node 37 (blade 2, node 8), m
        110    2.955E+01                                 F               0         Y-component position of node 37 (blade 2, node 8), m
        111    1.272E+02                                 F               0         Z-component position of node 37 (blade 2, node 8), m
        112    1.849E+01                                 F               0         X-component position of node 38 (blade 2, node 9), m
        113    3.286E+01                                 F               0         Y-component position of node 38 (blade 2, node 9), m
        114    1.253E+02                                 F               0         Z-component position of node 38 (blade 2, node 9), m
        115    1.788E+01                                 F               0         X-component position of node 39 (blade 2, node 10), m
        116    3.617E+01                                 F               0         Y-component position of node 39 (blade 2, node 10), m
        117    1.233E+02                                 F               0         Z-component position of node 39 (blade 2, node 10), m
        118    1.728E+01                                 F               0         X-component position of node 40 (blade 2, node 11), m
        119    3.948E+01                                 F               0         Y-component position of node 40 (blade 2, node 11), m
        120    1.214E+02                                 F               0         Z-component position of node 40 (blade 2, node 11), m
        121    1.668E+01                                 F               0         X-component position of node 41 (blade 2, node 12), m
        122    4.279E+01                                 F               0         Y-component position of node 41 (blade 2, node 12), m
        123    1.195E+02                                 F               0         Z-component position of node 41 (blade 2, node 12), m
        124    1.607E+01                                 F               0         X-component position of node 42 (blade 2, node 13), m
        125    4.609E+01                                 F               0         Y-component position of node 42 (blade 2, node 13), m
        126    1.176E+02                                 F               0         Z-component position of node 42 (blade 2, node 13), m
        127    1.547E+01                                 F               0         X-component position of node 43 (blade 2, node 14), m
        128    4.940E+01                                 F               0         Y-component position of node 43 (blade 2, node 14), m
        129    1.157E+02                                 F               0         Z-component position of node 43 (blade 2, node 14), m
        130    1.487E+01                                 F               0         X-component position of node 44 (blade 2, node 15), m
        131    5.271E+01                                 F               0         Y-component position of node 44 (blade 2, node 15), m
        132    1.138E+02                                 F               0         Z-component position of node 44 (blade 2, node 15), m
        133    1.427E+01                                 F               0         X-component position of node 45 (blade 2, node 16), m
        134    5.602E+01                                 F               0         Y-component position of node 45 (blade 2, node 16), m
        135    1.119E+02                                 F               0         Z-component position of node 45 (blade 2, node 16), m
        136    1.366E+01                                 F               0         X-component position of node 46 (blade 2, node 17), m
        137    5.933E+01                                 F               0         Y-component position of node 46 (blade 2, node 17), m
        138    1.100E+02                                 F               0         Z-component position of node 46 (blade 2, node 17), m
        139    1.306E+01                                 F               0         X-component position of node 47 (blade 2, node 18), m
        140    6.264E+01                                 F               0         Y-component position of node 47 (blade 2, node 18), m
        141    1.081E+02                                 F               0         Z-component position of node 47 (blade 2, node 18), m
        142    1.246E+01                                 F               0         X-component position of node 48 (blade 2, node 19), m
        143    6.595E+01                                 F               0         Y-component position of node 48 (blade 2, node 19), m
        144    1.062E+02                                 F               0         Z-component position of node 48 (blade 2, node 19), m
        145    1.185E+01                                 F               0         X-component position of node 49 (blade 2, node 20), m
        146    6.925E+01                                 F               0         Y-component position of node 49 (blade 2, node 20), m
        147    1.042E+02                                 F               0         Z-component position of node 49 (blade 2, node 20), m
        148    1.125E+01                                 F               0         X-component position of node 50 (blade 2, node 21), m
        149    7.256E+01                                 F               0         Y-component position of node 50 (blade 2, node 21), m
        150    1.023E+02                                 F               0         Z-component position of node 50 (blade 2, node 21), m
        151    1.065E+01                                 F               0         X-component position of node 51 (blade 2, node 22), m
        152    7.587E+01                                 F               0         Y-component position of node 51 (blade 2, node 22), m
        153    1.004E+02                                 F               0         Z-component position of node 51 (blade 2, node 22), m
        154    1.005E+01                                 F               0         X-component position of node 52 (blade 2, node 23), m
        155    7.918E+01                                 F               0         Y-component position of node 52 (blade 2, node 23), m
        156    9.851E+01                                 F               0         Z-component position of node 52 (blade 2, node 23), m
        157    9.443E+00                                 F               0         X-component position of node 53 (blade 2, node 24), m
        158    8.249E+01                                 F               0         Y-component position of node 53 (blade 2, node 24), m
        159    9.660E+01                                 F               0         Z-component position of node 53 (blade 2, node 24), m
        160    8.840E+00                                 F               0         X-component position of node 54 (blade 2, node 25), m
        161    8.580E+01                                 F               0         Y-component position of node 54 (blade 2, node 25), m
        162    9.469E+01                                 F               0         Z-component position of node 54 (blade 2, node 25), m
        163    8.237E+00                                 F               0         X-component position of node 55 (blade 2, node 26), m
        164    8.911E+01                                 F               0         Y-component position of node 55 (blade 2, node 26), m
        165    9.278E+01                                 F               0         Z-component position of node 55 (blade 2, node 26), m
        166    7.634E+00                                 F               0         X-component position of node 56 (blade 2, node 27), m
        167    9.241E+01                                 F               0         Y-component position of node 56 (blade 2, node 27), m
        168    9.087E+01                                 F               0         Z-component position of node 56 (blade 2, node 27), m
        169    7.123E+00                                 F               0         X-component position of node 57 (blade 2, node 28), m
        170    9.522E+01                                 F               0         Y-component position of node 57 (blade 2, node 28), m
        171    8.925E+01                                 F               0         Z-component position of node 57 (blade 2, node 28), m
        172    2.749E+01                                 F               0         X-component position of node 58 (blade 3, node 1), m
        173   -8.287E+00                                 F               0         Y-component position of node 58 (blade 3, node 1), m
        174    1.544E+02                                 F               0         Z-component position of node 58 (blade 3, node 1), m
        175    2.785E+01                                 F               0         X-component position of node 59 (blade 3, node 2), m
        176   -8.260E+00                                 F               0         Y-component position of node 59 (blade 3, node 2), m
        177    1.557E+02                                 F               0         Z-component position of node 59 (blade 3, node 2), m
        178    3.273E+01                                 F               0         X-component position of node 60 (blade 3, node 3), m
        179   -7.888E+00                                 F               0         Y-component position of node 60 (blade 3, node 3), m
        180    1.732E+02                                 F               0         Z-component position of node 60 (blade 3, node 3), m
        181    3.377E+01                                 F               0         X-component position of node 61 (blade 3, node 4), m
        182   -7.809E+00                                 F               0         Y-component position of node 61 (blade 3, node 4), m
        183    1.769E+02                                 F               0         Z-component position of node 61 (blade 3, node 4), m
        184    3.480E+01                                 F               0         X-component position of node 62 (blade 3, node 5), m
        185   -7.730E+00                                 F               0         Y-component position of node 62 (blade 3, node 5), m
        186    1.806E+02                                 F               0         Z-component position of node 62 (blade 3, node 5), m
        187    3.584E+01                                 F               0         X-component position of node 63 (blade 3, node 6), m
        188   -7.651E+00                                 F               0         Y-component position of node 63 (blade 3, node 6), m
        189    1.844E+02                                 F               0         Z-component position of node 63 (blade 3, node 6), m
        190    3.688E+01                                 F               0         X-component position of node 64 (blade 3, node 7), m
        191   -7.571E+00                                 F               0         Y-component position of node 64 (blade 3, node 7), m
        192    1.881E+02                                 F               0         Z-component position of node 64 (blade 3, node 7), m
        193    3.792E+01                                 F               0         X-component position of node 65 (blade 3, node 8), m
        194   -7.492E+00                                 F               0         Y-component position of node 65 (blade 3, node 8), m
        195    1.918E+02                                 F               0         Z-component position of node 65 (blade 3, node 8), m
        196    3.896E+01                                 F               0         X-component position of node 66 (blade 3, node 9), m
        197   -7.413E+00                                 F               0         Y-component position of node 66 (blade 3, node 9), m
        198    1.955E+02                                 F               0         Z-component position of node 66 (blade 3, node 9), m
        199    4.000E+01                                 F               0         X-component position of node 67 (blade 3, node 10), m
        200   -7.334E+00                                 F               0         Y-component position of node 67 (blade 3, node 10), m
        201    1.993E+02                                 F               0         Z-component position of node 67 (blade 3, node 10), m
        202    4.104E+01                                 F               0         X-component position of node 68 (blade 3, node 11), m
        203   -7.255E+00                                 F               0         Y-component position of node 68 (blade 3, node 11), m
        204    2.030E+02                                 F               0         Z-component position of node 68 (blade 3, node 11), m
        205    4.208E+01                                 F               0         X-component position of node 69 (blade 3, node 12), m
        206   -7.176E+00                                 F               0         Y-component position of node 69 (blade 3, node 12), m
        207    2.067E+02                                 F               0         Z-component position of node 69 (blade 3, node 12), m
        208    4.311E+01                                 F               0         X-component position of node 70 (blade 3, node 13), m
        209   -7.096E+00                                 F               0         Y-component position of node 70 (blade 3, node 13), m
        210    2.104E+02                                 F               0         Z-component position of node 70 (blade 3, node 13), m
        211    4.415E+01                                 F               0         X-component position of node 71 (blade 3, node 14), m