
Linearized model: Predictions were generated on 13-Feb-2024 at 12:12:09 using OpenFAST, compiled as a 64-bit application using single precision at commit v3.5.1
 linked with  NWTC Subroutine Library; ElastoDyn; InflowWind; AeroDyn; ServoDyn; HydroDyn; MAP++ (<1.20.10>, <Oct-20-2023>)

Description from the FAST input file: CCT-9 Campign 4 model. Input files to be run with OpenFAST 3.5.0. GitHub branch from Lu Wang (https://github.com/luwang00/openfast/tree/dev) compiled on March 7, 2023.

Simulation information:
   Simulation time:                   774.6250 s
   Rotor Speed:                         0.7921 rad/s
   Azimuth:                             3.3176 rad
   Wind Speed:                         24.0000 m/s
   Number of continuous states:         0
   Number of discrete states:           0
   Number of constraint states:         0
   Number of inputs:                 1746
   Number of outputs:                   4
   Jacobians included in this file?    No

Order of inputs:
     Column   Operating Point                                                   Rotating Frame? Derivative Order Description
   ---------- ---------------                                                   --------------- ---------------- -----------
          1     8.55727863312E+000                                                     F               0         Tower X translation displacement, node 1, m
          2    -1.82641470432E+000                                                     F               0         Tower Y translation displacement, node 1, m
          3    -2.17011198401E-001                                                     F               0         Tower Z translation displacement, node 1, m
          4     9.73158836365E+000                                                     F               0         Tower X translation displacement, node 2, m
          5    -2.50309705734E+000                                                     F               0         Tower Y translation displacement, node 2, m
          6    -2.91577786207E-001                                                     F               0         Tower Z translation displacement, node 2, m
          7     1.09236335754E+001                                                     F               0         Tower X translation displacement, node 3, m
          8    -3.18726515770E+000                                                     F               0         Tower Y translation displacement, node 3, m
          9    -3.68264108896E-001                                                     F               0         Tower Z translation displacement, node 3, m
         10     1.21289262772E+001                                                     F               0         Tower X translation displacement, node 4, m
         11    -3.87759685516E+000                                                     F               0         Tower Y translation displacement, node 4, m
         12    -4.46588814259E-001                                                     F               0         Tower Z translation displacement, node 4, m
         13     1.33449563980E+001                                                     F               0         Tower X translation displacement, node 5, m
         14    -4.57350254059E+000                                                     F               0         Tower Y translation displacement, node 5, m
         15    -5.26284158230E-001                                                     F               0         Tower Z translation displacement, node 5, m
         16     1.45693855286E+001                                                     F               0         Tower X translation displacement, node 6, m
         17    -5.27435731888E+000                                                     F               0         Tower Y translation displacement, node 6, m
         18    -6.07106804848E-001                                                     F               0         Tower Z translation displacement, node 6, m
         19     1.57997159958E+001                                                     F               0         Tower X translation displacement, node 7, m
         20    -5.97918844223E+000                                                     F               0         Tower Y translation displacement, node 7, m
         21    -6.88732922077E-001                                                     F               0         Tower Z translation displacement, node 7, m
         22     1.70347537994E+001                                                     F               0         Tower X translation displacement, node 8, m
         23    -6.68768167496E+000                                                     F               0         Tower Y translation displacement, node 8, m
         24    -7.71054983139E-001                                                     F               0         Tower Z translation displacement, node 8, m
         25     1.82729530334E+001                                                     F               0         Tower X translation displacement, node 9, m
         26    -7.39908027649E+000                                                     F               0         Tower Y translation displacement, node 9, m
         27    -8.53854119778E-001                                                     F               0         Tower Z translation displacement, node 9, m
         28     1.95130577087E+001                                                     F               0         Tower X translation displacement, node 10, m
         29    -8.11258125305E+000                                                     F               0         Tower Y translation displacement, node 10, m
         30    -9.36974227428E-001                                                     F               0         Tower Z translation displacement, node 10, m
         31     2.07540874481E+001                                                     F               0         Tower X translation displacement, node 11, m
         32    -8.82739830017E+000                                                     F               0         Tower Y translation displacement, node 11, m
         33    -1.02026128769E+000                                                     F               0         Tower Z translation displacement, node 11, m
         34     9.95457530022E-001,  -6.67713209987E-003,  -9.49721410871E-002         F               0         Tower X orientation angle, node 1, rad
         35     1.18169048801E-002,   9.98489379883E-001,   5.36597557366E-002         F               0         Tower Y orientation angle, node 1, rad
         36     9.44703742862E-002,  -5.45382834971E-002,   9.94032680988E-001         F               0         Tower Z orientation angle, node 1, rad
         37     9.95327174664E-001,  -6.60203117877E-003,  -9.63338539004E-002         F               0         Tower X orientation angle, node 2, rad
         38     1.18693709373E-002,   9.98459100723E-001,   5.42078278959E-002         F               0         Tower Y orientation angle, node 2, rad
         39     9.58275347948E-002,  -5.50979450345E-002,   9.93871867657E-001         F               0         Tower Z orientation angle, node 2, rad
         40     9.95212852955E-001,  -6.53635663912E-003,  -9.75124388933E-002         F               0         Tower X orientation angle, node 3, rad
         41     1.19187394157E-002,   9.98430788517E-001,   5.47169409692E-002         F               0         Tower Y orientation angle, node 3, rad
         42     9.70017686486E-002,  -5.56172281504E-002,   9.93729054928E-001         F               0         Tower Z orientation angle, node 3, rad
         43     9.95117008686E-001,  -6.48136483505E-003,  -9.84894335270E-002         F               0         Tower X orientation angle, node 4, rad
         44     1.19642959908E-002,   9.98404622078E-001,   5.51820620894E-002         F               0         Tower Y orientation angle, node 4, rad
         45     9.79746505618E-002,  -5.60909621418E-002,   9.93606925011E-001         F               0         Tower Z orientation angle, node 4, rad
         46     9.95039284229E-001,  -6.43674284220E-003,  -9.92743372917E-002         F               0         Tower X orientation angle, node 5, rad
         47     1.20056578889E-002,   9.98380899429E-001,   5.56012801826E-002         F               0         Tower Y orientation angle, node 5, rad
         48     9.87557098269E-002,  -5.65173141658E-002,   9.93505477905E-001         F               0         Tower Z orientation angle, node 5, rad
         49     9.94978666306E-001,  -6.40182709321E-003,  -9.98823866248E-002         F               0         Tower X orientation angle, node 6, rad
         50     1.20423724875E-002,   9.98359739780E-001,   5.59716038406E-002         F               0         Tower Y orientation angle, node 6, rad
         51     9.93602350354E-002,  -5.68933747709E-002,   9.93423700333E-001         F               0         Tower Z orientation angle, node 6, rad
         52     9.94934618473E-001,  -6.37632794678E-003,  -1.00321777165E-001         F               0         Tower X orientation angle, node 7, rad
         53     1.20734889060E-002,   9.98341739178E-001,   5.62846660614E-002         F               0         Tower Y orientation angle, node 7, rad
         54     9.97965261340E-002,  -5.72107955813E-002,   9.93361771107E-001         F               0         Tower Z orientation angle, node 7, rad
         55     9.94903624058E-001,  -6.35827938095E-003,  -1.00629501045E-001         F               0         Tower X orientation angle, node 8, rad
         56     1.20989643037E-002,   9.98326957226E-001,   5.65406940877E-002         F               0         Tower Y orientation angle, node 8, rad
         57     1.00101642311E-001,  -5.74700571597E-002,   9.93316113949E-001         F               0         Tower Z orientation angle, node 8, rad
         58     9.94883537292E-001,  -6.34645717219E-003,  -1.00828841329E-001         F               0         Tower X orientation angle, node 9, rad
         59     1.21184093878E-002,   9.98315632343E-001,   5.67361302674E-002         F               0         Tower Y orientation angle, node 9, rad
         60     1.00298933685E-001,  -5.76677285135E-002,   9.93284702301E-001         F               0         Tower Z orientation angle, node 9, rad
         61     9.94872093201E-001,  -6.33964641020E-003,  -1.00942313671E-001         F               0         Tower X orientation angle, node 10, rad
         62     1.21315298602E-002,   9.98308002949E-001,   5.68681396544E-002         F               0         Tower Y orientation angle, node 10, rad
         63     1.00410990417E-001,  -5.78011088073E-002,   9.93265628815E-001         F               0         Tower Z orientation angle, node 10, rad
         64     9.94866728783E-001,  -6.33642775938E-003,  -1.00995227695E-001         F               0         Tower X orientation angle, node 11, rad
         65     1.21388500556E-002,   9.98303711414E-001,   5.69418892264E-002         F               0         Tower Y orientation angle, node 11, rad
         66     1.00463099778E-001,  -5.78755550086E-002,   9.93256032467E-001         F               0         Tower Z orientation angle, node 11, rad
         67     5.15079917386E-003                                                     F               0         Tower X translation velocity, node 1, m/s
         68     3.08168958873E-003                                                     F               0         Tower Y translation velocity, node 1, m/s
         69    -3.00051714294E-003                                                     F               0         Tower Z translation velocity, node 1, m/s
         70     6.65447395295E-003                                                     F               0         Tower X translation velocity, node 2, m/s
         71     3.70010873303E-003                                                     F               0         Tower Y translation velocity, node 2, m/s
         72    -3.11017385684E-003                                                     F               0         Tower Z translation velocity, node 2, m/s
         73     7.57250608876E-003                                                     F               0         Tower X translation velocity, node 3, m/s
         74     3.92969464883E-003                                                     F               0         Tower Y translation velocity, node 3, m/s
         75    -3.18648107350E-003                                                     F               0         Tower Z translation velocity, node 3, m/s
         76     7.85809569061E-003                                                     F               0         Tower X translation velocity, node 4, m/s
         77     3.86264850385E-003                                                     F               0         Tower Y translation velocity, node 4, m/s
         78    -3.21824918501E-003                                                     F               0         Tower Z translation velocity, node 4, m/s
         79     7.43347452953E-003                                                     F               0         Tower X translation velocity, node 5, m/s
         80     3.54888988659E-003                                                     F               0         Tower Y translation velocity, node 5, m/s
         81    -3.19392443635E-003                                                     F               0         Tower Z translation velocity, node 5, m/s
         82     6.25116424635E-003                                                     F               0         Tower X translation velocity, node 6, m/s
         83     3.03555582650E-003                                                     F               0         Tower Y translation velocity, node 6, m/s
         84    -3.10524436645E-003                                                     F               0         Tower Z translation velocity, node 6, m/s
         85     4.36459807679E-003                                                     F               0         Tower X translation velocity, node 7, m/s
         86     2.37642740831E-003                                                     F               0         Tower Y translation velocity, node 7, m/s
         87    -2.95396475121E-003                                                     F               0         Tower Z translation velocity, node 7, m/s
         88     1.74526125193E-003                                                     F               0         Tower X translation velocity, node 8, m/s
         89     1.59508048091E-003                                                     F               0         Tower Y translation velocity, node 8, m/s
         90    -2.73551046848E-003                                                     F               0         Tower Z translation velocity, node 8, m/s
         91    -1.52419588994E-003                                                     F               0         Tower X translation velocity, node 9, m/s
         92     7.26164318621E-004                                                     F               0         Tower Y translation velocity, node 9, m/s
         93    -2.45607318357E-003                                                     F               0         Tower Z translation velocity, node 9, m/s
         94    -5.31332939863E-003                                                     F               0         Tower X translation velocity, node 10, m/s
         95    -2.00632683118E-004                                                     F               0         Tower Y translation velocity, node 10, m/s
         96    -2.12713982910E-003                                                     F               0         Tower Z translation velocity, node 10, m/s
         97    -9.46124549955E-003                                                     F               0         Tower X translation velocity, node 11, m/s
         98    -1.16160803009E-003                                                     F               0         Tower Y translation velocity, node 11, m/s
         99    -1.76378013566E-003                                                     F               0         Tower Z translation velocity, node 11, m/s
        100     2.15981826782E+001                                                     F               0         Hub X translation displacement, node 1, m
        101    -9.21329498291E+000                                                     F               0         Hub Y translation displacement, node 1, m
        102     1.76025051624E-002                                                     F               0         Hub Z translation displacement, node 1, m
        103     9.78915512562E-001,  -2.52073135925E-004,  -2.04265490174E-001         F               0         Hub X orientation angle, node 1, rad
        104    -4.76615242660E-002,  -9.72678482533E-001,  -2.27211251855E-001         F               0         Hub Y orientation angle, node 1, rad
        105    -1.98627382517E-001,   2.32156217098E-001,  -9.52182054520E-001         F               0         Hub Z orientation angle, node 1, rad
        106     7.75466263294E-001                                                     F               0         Hub X rotation velocity, node 1, rad/s
        107    -5.42881549336E-004                                                     F               0         Hub Y rotation velocity, node 1, rad/s
        108    -1.61814808846E-001                                                     F               0         Hub Z rotation velocity, node 1, rad/s
        109     9.50526714325E-001,   2.82394856215E-001,  -1.29429981112E-001         F               0         Blade root 1 X orientation angle, node 1, rad
        110     2.38843351603E-001,  -9.30782794952E-001,  -2.76762038469E-001         F               0         Blade root 1 Y orientation angle, node 1, rad
        111    -1.98627382517E-001,   2.32156217098E-001,  -9.52182054520E-001         F               0         Blade root 1 Z orientation angle, node 1, rad
        112     9.79736506939E-001,  -1.99980258942E-001,   1.11493337899E-002         F               0         Blade root 2 X orientation angle, node 1, rad
        113     1.42656669021E-001,   6.57659709454E-001,  -7.39684224129E-001         F               0         Blade root 2 Y orientation angle, node 1, rad
        114     1.40589773655E-001,   7.26286172867E-001,   6.72861754894E-001         F               0         Blade root 2 Z orientation angle, node 1, rad
        115     8.79769206047E-001,  -8.31381976604E-002,  -4.68075037003E-001         F               0         Blade root 3 X orientation angle, node 1, rad
        116     4.71845120192E-001,   2.72903352976E-001,   8.38382899761E-001         F               0         Blade root 3 Y orientation angle, node 1, rad
        117     5.80375976861E-002,  -9.58442389965E-001,   2.79320299625E-001         F               0         Blade root 3 Z orientation angle, node 1, rad
        118     1.99186973572E+001                                                     F               0         Blade 1 X translation displacement, node 1, m
        119    -7.92714977264E+000                                                     F               0         Blade 1 Y translation displacement, node 1, m
        120    -1.07671451569E+001                                                     F               0         Blade 1 Z translation displacement, node 1, m
        121     1.95140132904E+001                                                     F               0         Blade 1 X translation displacement, node 2, m
        122    -7.61724328995E+000                                                     F               0         Blade 1 Y translation displacement, node 2, m
        123    -1.33658094406E+001                                                     F               0         Blade 1 Z translation displacement, node 2, m
        124     1.40110063553E+001                                                     F               0         Blade 1 X translation displacement, node 3, m
        125    -3.40304899216E+000                                                     F               0         Blade 1 Y translation displacement, node 3, m
        126    -4.87031669617E+001                                                     F               0         Blade 1 Z translation displacement, node 3, m
        127     1.28385572433E+001                                                     F               0         Blade 1 X translation displacement, node 4, m
        128    -2.50518965721E+000                                                     F               0         Blade 1 Y translation displacement, node 4, m
        129    -5.62320098877E+001                                                     F               0         Blade 1 Z translation displacement, node 4, m
        130     1.16658859253E+001                                                     F               0         Blade 1 X translation displacement, node 5, m
        131    -1.60716009140E+000                                                     F               0         Blade 1 Y translation displacement, node 5, m
        132    -6.37622680664E+001                                                     F               0         Blade 1 Z translation displacement, node 5, m
        133     1.04934329987E+001                                                     F               0         Blade 1 X translation displacement, node 6, m
        134    -7.09297358990E-001                                                     F               0         Blade 1 Y translation displacement, node 6, m
        135    -7.12911376953E+001                                                     F               0         Blade 1 Z translation displacement, node 6, m
        136     9.32097625732E+000                                                     F               0         Blade 1 X translation displacement, node 7, m
        137     1.88568085432E-001                                                     F               0         Blade 1 Y translation displacement, node 7, m
        138    -7.88200225830E+001                                                     F               0         Blade 1 Z translation displacement, node 7, m
        139     8.14830875397E+000                                                     F               0         Blade 1 X translation displacement, node 8, m
        140     1.08659434319E+000                                                     F               0         Blade 1 Y translation displacement, node 8, m
        141    -8.63502655029E+001                                                     F               0         Blade 1 Z translation displacement, node 8, m
        142     6.97585105896E+000                                                     F               0         Blade 1 X translation displacement, node 9, m
        143     1.98446023464E+000                                                     F               0         Blade 1 Y translation displacement, node 9, m
        144    -9.38791503906E+001                                                     F               0         Blade 1 Z translation displacement, node 9, m
        145     5.80339813232E+000                                                     F               0         Blade 1 X translation displacement, node 10, m
        146     2.88232278824E+000                                                     F               0         Blade 1 Y translation displacement, node 10, m
        147    -1.01408020020E+002                                                     F               0         Blade 1 Z translation displacement, node 10, m
        148     4.63094043732E+000                                                     F               0         Blade 1 X translation displacement, node 11, m
        149     3.78018856049E+000                                                     F               0         Blade 1 Y translation displacement, node 11, m
        150    -1.08936904907E+002                                                     F               0         Blade 1 Z translation displacement, node 11, m
        151     3.45827841759E+000                                                     F               0         Blade 1 X translation displacement, node 12, m
        152     4.67821216583E+000                                                     F               0         Blade 1 Y translation displacement, node 12, m
        153    -1.16467124939E+002                                                     F               0         Blade 1 Z translation displacement, node 12, m
        154     2.28582072258E+000                                                     F               0         Blade 1 X translation displacement, node 13, m
        155     5.57607746124E+000                                                     F               0         Blade 1 Y translation displacement, node 13, m
        156    -1.23996009827E+002                                                     F               0         Blade 1 Z translation displacement, node 13, m
        157     1.11336767673E+000                                                     F               0         Blade 1 X translation displacement, node 14, m
        158     6.47394037247E+000                                                     F               0         Blade 1 Y translation displacement, node 14, m
        159    -1.31524871826E+002                                                     F               0         Blade 1 Z translation displacement, node 14, m
        160    -5.93023076653E-002                                                     F               0         Blade 1 X translation displacement, node 15, m
        161     7.37196874619E+000                                                     F               0         Blade 1 Y translation displacement, node 15, m
        162    -1.39055130005E+002                                                     F               0         Blade 1 Z translation displacement, node 15, m
        163    -1.23175597191E+000                                                     F               0         Blade 1 X translation displacement, node 16, m
        164     8.26983165741E+000                                                     F               0         Blade 1 Y translation displacement, node 16, m
        165    -1.46583999634E+002                                                     F               0         Blade 1 Z translation displacement, node 16, m
        166    -2.40421438217E+000                                                     F               0         Blade 1 X translation displacement, node 17, m
        167     9.16769886017E+000                                                     F               0         Blade 1 Y translation displacement, node 17, m
        168    -1.54112899780E+002                                                     F               0         Blade 1 Z translation displacement, node 17, m
        169    -3.57666826248E+000                                                     F               0         Blade 1 X translation displacement, node 18, m
        170     1.00655622482E+001                                                     F               0         Blade 1 Y translation displacement, node 18, m
        171    -1.61641769409E+002                                                     F               0         Blade 1 Z translation displacement, node 18, m
        172    -4.74933147430E+000                                                     F               0         Blade 1 X translation displacement, node 19, m
        173     1.09635848999E+001                                                     F               0         Blade 1 Y translation displacement, node 19, m
        174    -1.69171981812E+002                                                     F               0         Blade 1 Z translation displacement, node 19, m
        175    -5.92178964615E+000                                                     F               0         Blade 1 X translation displacement, node 20, m
        176     1.18614511490E+001                                                     F               0         Blade 1 Y translation displacement, node 20, m
        177    -1.76700866699E+002                                                     F               0         Blade 1 Z translation displacement, node 20, m
        178    -7.09424352646E+000                                                     F               0         Blade 1 X translation displacement, node 21, m
        179     1.27593154907E+001                                                     F               0         Blade 1 Y translation displacement, node 21, m
        180    -1.84229751587E+002                                                     F               0         Blade 1 Z translation displacement, node 21, m
        181    -8.26691150665E+000                                                     F               0         Blade 1 X translation displacement, node 22, m
        182     1.36573419571E+001                                                     F               0         Blade 1 Y translation displacement, node 22, m
        183    -1.91759994507E+002                                                     F               0         Blade 1 Z translation displacement, node 22, m