
Linearized model: Predictions were generated on 12-Feb-2024 at 15:30:16 using OpenFAST, compiled as a 64-bit application using single precision at commit v3.5.1
 linked with  NWTC Subroutine Library; ElastoDyn; InflowWind; AeroDyn; ServoDyn; HydroDyn; MAP++ (<1.20.10>, <Oct-20-2023>)

Description from the FAST input file: CCT-9 Campign 4 model. Input files to be run with OpenFAST 3.5.0. GitHub branch from Lu Wang (https://github.com/luwang00/openfast/tree/dev) compiled on March 7, 2023.

Simulation information:
   Simulation time:                  1001.2500 s
   Rotor Speed:                         1.0391 rad/s
   Azimuth:                             2.3486 rad
   Wind Speed:                         12.0000 m/s
   Number of continuous states:         0
   Number of discrete states:           0
   Number of constraint states:         0
   Number of inputs:                  303
   Number of outputs:                   1
   Jacobians included in this file?    No

Order of inputs:
     Column   Operating Point                     Rotating Frame? Derivative Order Description
   ---------- ---------------                     --------------- ---------------- -----------
          1   -1.080E+01                                 F               0         X-component position of node 1 (hub), m
          2    0.000E+00                                 F               0         Y-component position of node 1 (hub), m
          3    1.497E+02                                 F               0         Z-component position of node 1 (hub), m
          4    2.506E+01                                 F               0         X-component position of node 2 (blade 1, node 1), m
          5   -1.104E+01                                 F               0         Y-component position of node 2 (blade 1, node 1), m
          6    1.452E+02                                 F               0         Z-component position of node 2 (blade 1, node 1), m
          7    2.481E+01                                 F               0         X-component position of node 3 (blade 1, node 2), m
          8   -1.195E+01                                 F               0         Y-component position of node 3 (blade 1, node 2), m
          9    1.442E+02                                 F               0         Z-component position of node 3 (blade 1, node 2), m
         10    2.146E+01                                 F               0         X-component position of node 4 (blade 1, node 3), m
         11   -2.429E+01                                 F               0         Y-component position of node 4 (blade 1, node 3), m
         12    1.314E+02                                 F               0         Z-component position of node 4 (blade 1, node 3), m
         13    2.074E+01                                 F               0         X-component position of node 5 (blade 1, node 4), m
         14   -2.692E+01                                 F               0         Y-component position of node 5 (blade 1, node 4), m
         15    1.286E+02                                 F               0         Z-component position of node 5 (blade 1, node 4), m
         16    2.003E+01                                 F               0         X-component position of node 6 (blade 1, node 5), m
         17   -2.955E+01                                 F               0         Y-component position of node 6 (blade 1, node 5), m
         18    1.259E+02                                 F               0         Z-component position of node 6 (blade 1, node 5), m
         19    1.931E+01                                 F               0         X-component position of node 7 (blade 1, node 6), m
         20   -3.218E+01                                 F               0         Y-component position of node 7 (blade 1, node 6), m
         21    1.231E+02                                 F               0         Z-component position of node 7 (blade 1, node 6), m
         22    1.860E+01                                 F               0         X-component position of node 8 (blade 1, node 7), m
         23   -3.481E+01                                 F               0         Y-component position of node 8 (blade 1, node 7), m
         24    1.204E+02                                 F               0         Z-component position of node 8 (blade 1, node 7), m
         25    1.788E+01                                 F               0         X-component position of node 9 (blade 1, node 8), m
         26   -3.744E+01                                 F               0         Y-component position of node 9 (blade 1, node 8), m
         27    1.176E+02                                 F               0         Z-component position of node 9 (blade 1, node 8), m
         28    1.717E+01                                 F               0         X-component position of node 10 (blade 1, node 9), m
         29   -4.007E+01                                 F               0         Y-component position of node 10 (blade 1, node 9), m
         30    1.149E+02                                 F               0         Z-component position of node 10 (blade 1, node 9), m
         31    1.645E+01                                 F               0         X-component position of node 11 (blade 1, node 10), m
         32   -4.270E+01                                 F               0         Y-component position of node 11 (blade 1, node 10), m
         33    1.122E+02                                 F               0         Z-component position of node 11 (blade 1, node 10), m
         34    1.574E+01                                 F               0         X-component position of node 12 (blade 1, node 11), m
         35   -4.533E+01                                 F               0         Y-component position of node 12 (blade 1, node 11), m
         36    1.094E+02                                 F               0         Z-component position of node 12 (blade 1, node 11), m
         37    1.502E+01                                 F               0         X-component position of node 13 (blade 1, node 12), m
         38   -4.796E+01                                 F               0         Y-component position of node 13 (blade 1, node 12), m
         39    1.067E+02                                 F               0         Z-component position of node 13 (blade 1, node 12), m
         40    1.431E+01                                 F               0         X-component position of node 14 (blade 1, node 13), m
         41   -5.059E+01                                 F               0         Y-component position of node 14 (blade 1, node 13), m
         42    1.039E+02                                 F               0         Z-component position of node 14 (blade 1, node 13), m
         43    1.359E+01                                 F               0         X-component position of node 15 (blade 1, node 14), m
         44   -5.322E+01                                 F               0         Y-component position of node 15 (blade 1, node 14), m
         45    1.012E+02                                 F               0         Z-component position of node 15 (blade 1, node 14), m
         46    1.288E+01                                 F               0         X-component position of node 16 (blade 1, node 15), m
         47   -5.585E+01                                 F               0         Y-component position of node 16 (blade 1, node 15), m
         48    9.843E+01                                 F               0         Z-component position of node 16 (blade 1, node 15), m
         49    1.216E+01                                 F               0         X-component position of node 17 (blade 1, node 16), m
         50   -5.848E+01                                 F               0         Y-component position of node 17 (blade 1, node 16), m
         51    9.568E+01                                 F               0         Z-component position of node 17 (blade 1, node 16), m
         52    1.145E+01                                 F               0         X-component position of node 18 (blade 1, node 17), m
         53   -6.111E+01                                 F               0         Y-component position of node 18 (blade 1, node 17), m
         54    9.294E+01                                 F               0         Z-component position of node 18 (blade 1, node 17), m
         55    1.073E+01                                 F               0         X-component position of node 19 (blade 1, node 18), m
         56   -6.374E+01                                 F               0         Y-component position of node 19 (blade 1, node 18), m
         57    9.019E+01                                 F               0         Z-component position of node 19 (blade 1, node 18), m
         58    1.002E+01                                 F               0         X-component position of node 20 (blade 1, node 19), m
         59   -6.637E+01                                 F               0         Y-component position of node 20 (blade 1, node 19), m
         60    8.745E+01                                 F               0         Z-component position of node 20 (blade 1, node 19), m
         61    9.303E+00                                 F               0         X-component position of node 21 (blade 1, node 20), m
         62   -6.900E+01                                 F               0         Y-component position of node 21 (blade 1, node 20), m
         63    8.471E+01                                 F               0         Z-component position of node 21 (blade 1, node 20), m
         64    8.589E+00                                 F               0         X-component position of node 22 (blade 1, node 21), m
         65   -7.163E+01                                 F               0         Y-component position of node 22 (blade 1, node 21), m
         66    8.196E+01                                 F               0         Z-component position of node 22 (blade 1, node 21), m
         67    7.873E+00                                 F               0         X-component position of node 23 (blade 1, node 22), m
         68   -7.426E+01                                 F               0         Y-component position of node 23 (blade 1, node 22), m
         69    7.922E+01                                 F               0         Z-component position of node 23 (blade 1, node 22), m
         70    7.159E+00                                 F               0         X-component position of node 24 (blade 1, node 23), m
         71   -7.689E+01                                 F               0         Y-component position of node 24 (blade 1, node 23), m
         72    7.647E+01                                 F               0         Z-component position of node 24 (blade 1, node 23), m
         73    6.444E+00                                 F               0         X-component position of node 25 (blade 1, node 24), m
         74   -7.952E+01                                 F               0         Y-component position of node 25 (blade 1, node 24), m
         75    7.373E+01                                 F               0         Z-component position of node 25 (blade 1, node 24), m
         76    5.729E+00                                 F               0         X-component position of node 26 (blade 1, node 25), m
         77   -8.215E+01                                 F               0         Y-component position of node 26 (blade 1, node 25), m
         78    7.098E+01                                 F               0         Z-component position of node 26 (blade 1, node 25), m
         79    5.014E+00                                 F               0         X-component position of node 27 (blade 1, node 26), m
         80   -8.478E+01                                 F               0         Y-component position of node 27 (blade 1, node 26), m
         81    6.824E+01                                 F               0         Z-component position of node 27 (blade 1, node 26), m
         82    4.299E+00                                 F               0         X-component position of node 28 (blade 1, node 27), m
         83   -8.741E+01                                 F               0         Y-component position of node 28 (blade 1, node 27), m
         84    6.549E+01                                 F               0         Z-component position of node 28 (blade 1, node 27), m
         85    3.693E+00                                 F               0         X-component position of node 29 (blade 1, node 28), m
         86   -8.964E+01                                 F               0         Y-component position of node 29 (blade 1, node 28), m
         87    6.317E+01                                 F               0         Z-component position of node 29 (blade 1, node 28), m
         88    2.565E+01                                 F               0         X-component position of node 30 (blade 2, node 1), m
         89   -1.874E+00                                 F               0         Y-component position of node 30 (blade 2, node 1), m
         90    1.480E+02                                 F               0         Z-component position of node 30 (blade 2, node 1), m
         91    2.555E+01                                 F               0         X-component position of node 31 (blade 2, node 2), m
         92   -5.725E-01                                 F               0         Y-component position of node 31 (blade 2, node 2), m
         93    1.477E+02                                 F               0         Z-component position of node 31 (blade 2, node 2), m
         94    2.412E+01                                 F               0         X-component position of node 32 (blade 2, node 3), m
         95    1.712E+01                                 F               0         Y-component position of node 32 (blade 2, node 3), m
         96    1.439E+02                                 F               0         Z-component position of node 32 (blade 2, node 3), m
         97    2.382E+01                                 F               0         X-component position of node 33 (blade 2, node 4), m
         98    2.089E+01                                 F               0         Y-component position of node 33 (blade 2, node 4), m
         99    1.431E+02                                 F               0         Z-component position of node 33 (blade 2, node 4), m
        100    2.352E+01                                 F               0         X-component position of node 34 (blade 2, node 5), m
        101    2.466E+01                                 F               0         Y-component position of node 34 (blade 2, node 5), m
        102    1.423E+02                                 F               0         Z-component position of node 34 (blade 2, node 5), m
        103    2.321E+01                                 F               0         X-component position of node 35 (blade 2, node 6), m
        104    2.843E+01                                 F               0         Y-component position of node 35 (blade 2, node 6), m
        105    1.415E+02                                 F               0         Z-component position of node 35 (blade 2, node 6), m
        106    2.291E+01                                 F               0         X-component position of node 36 (blade 2, node 7), m
        107    3.220E+01                                 F               0         Y-component position of node 36 (blade 2, node 7), m
        108    1.407E+02                                 F               0         Z-component position of node 36 (blade 2, node 7), m
        109    2.261E+01                                 F               0         X-component position of node 37 (blade 2, node 8), m
        110    3.597E+01                                 F               0         Y-component position of node 37 (blade 2, node 8), m
        111    1.398E+02                                 F               0         Z-component position of node 37 (blade 2, node 8), m
        112    2.231E+01                                 F               0         X-component position of node 38 (blade 2, node 9), m
        113    3.974E+01                                 F               0         Y-component position of node 38 (blade 2, node 9), m
        114    1.390E+02                                 F               0         Z-component position of node 38 (blade 2, node 9), m
        115    2.200E+01                                 F               0         X-component position of node 39 (blade 2, node 10), m
        116    4.351E+01                                 F               0         Y-component position of node 39 (blade 2, node 10), m
        117    1.382E+02                                 F               0         Z-component position of node 39 (blade 2, node 10), m
        118    2.170E+01                                 F               0         X-component position of node 40 (blade 2, node 11), m
        119    4.728E+01                                 F               0         Y-component position of node 40 (blade 2, node 11), m
        120    1.374E+02                                 F               0         Z-component position of node 40 (blade 2, node 11), m
        121    2.140E+01                                 F               0         X-component position of node 41 (blade 2, node 12), m
        122    5.105E+01                                 F               0         Y-component position of node 41 (blade 2, node 12), m
        123    1.366E+02                                 F               0         Z-component position of node 41 (blade 2, node 12), m
        124    2.109E+01                                 F               0         X-component position of node 42 (blade 2, node 13), m
        125    5.482E+01                                 F               0         Y-component position of node 42 (blade 2, node 13), m
        126    1.358E+02                                 F               0         Z-component position of node 42 (blade 2, node 13), m
        127    2.079E+01                                 F               0         X-component position of node 43 (blade 2, node 14), m
        128    5.859E+01                                 F               0         Y-component position of node 43 (blade 2, node 14), m
        129    1.350E+02                                 F               0         Z-component position of node 43 (blade 2, node 14), m
        130    2.049E+01                                 F               0         X-component position of node 44 (blade 2, node 15), m
        131    6.236E+01                                 F               0         Y-component position of node 44 (blade 2, node 15), m
        132    1.342E+02                                 F               0         Z-component position of node 44 (blade 2, node 15), m
        133    2.019E+01                                 F               0         X-component position of node 45 (blade 2, node 16), m
        134    6.613E+01                                 F               0         Y-component position of node 45 (blade 2, node 16), m
        135    1.334E+02                                 F               0         Z-component position of node 45 (blade 2, node 16), m
        136    1.988E+01                                 F               0         X-component position of node 46 (blade 2, node 17), m
        137    6.990E+01                                 F               0         Y-component position of node 46 (blade 2, node 17), m
        138    1.326E+02                                 F               0         Z-component position of node 46 (blade 2, node 17), m
        139    1.958E+01                                 F               0         X-component position of node 47 (blade 2, node 18), m
        140    7.367E+01                                 F               0         Y-component position of node 47 (blade 2, node 18), m
        141    1.318E+02                                 F               0         Z-component position of node 47 (blade 2, node 18), m
        142    1.928E+01                                 F               0         X-component position of node 48 (blade 2, node 19), m
        143    7.744E+01                                 F               0         Y-component position of node 48 (blade 2, node 19), m
        144    1.310E+02                                 F               0         Z-component position of node 48 (blade 2, node 19), m
        145    1.897E+01                                 F               0         X-component position of node 49 (blade 2, node 20), m
        146    8.121E+01                                 F               0         Y-component position of node 49 (blade 2, node 20), m
        147    1.301E+02                                 F               0         Z-component position of node 49 (blade 2, node 20), m
        148    1.867E+01                                 F               0         X-component position of node 50 (blade 2, node 21), m
        149    8.498E+01                                 F               0         Y-component position of node 50 (blade 2, node 21), m
        150    1.293E+02                                 F               0         Z-component position of node 50 (blade 2, node 21), m
        151    1.837E+01                                 F               0         X-component position of node 51 (blade 2, node 22), m
        152    8.875E+01                                 F               0         Y-component position of node 51 (blade 2, node 22), m
        153    1.285E+02                                 F               0         Z-component position of node 51 (blade 2, node 22), m
        154    1.806E+01                                 F               0         X-component position of node 52 (blade 2, node 23), m
        155    9.252E+01                                 F               0         Y-component position of node 52 (blade 2, node 23), m
        156    1.277E+02                                 F               0         Z-component position of node 52 (blade 2, node 23), m
        157    1.776E+01                                 F               0         X-component position of node 53 (blade 2, node 24), m
        158    9.629E+01                                 F               0         Y-component position of node 53 (blade 2, node 24), m
        159    1.269E+02                                 F               0         Z-component position of node 53 (blade 2, node 24), m
        160    1.746E+01                                 F               0         X-component position of node 54 (blade 2, node 25), m
        161    1.001E+02                                 F               0         Y-component position of node 54 (blade 2, node 25), m
        162    1.261E+02                                 F               0         Z-component position of node 54 (blade 2, node 25), m
        163    1.716E+01                                 F               0         X-component position of node 55 (blade 2, node 26), m
        164    1.038E+02                                 F               0         Y-component position of node 55 (blade 2, node 26), m
        165    1.253E+02                                 F               0         Z-component position of node 55 (blade 2, node 26), m
        166    1.685E+01                                 F               0         X-component position of node 56 (blade 2, node 27), m
        167    1.076E+02                                 F               0         Y-component position of node 56 (blade 2, node 27), m
        168    1.245E+02                                 F               0         Z-component position of node 56 (blade 2, node 27), m
        169    1.660E+01                                 F               0         X-component position of node 57 (blade 2, node 28), m
        170    1.108E+02                                 F               0         Y-component position of node 57 (blade 2, node 28), m
        171    1.238E+02                                 F               0         Z-component position of node 57 (blade 2, node 28), m
        172    2.754E+01                                 F               0         X-component position of node 58 (blade 3, node 1), m
        173   -8.907E+00                                 F               0         Y-component position of node 58 (blade 3, node 1), m
        174    1.542E+02                                 F               0         Z-component position of node 58 (blade 3, node 1), m
        175    2.789E+01                                 F               0         X-component position of node 59 (blade 3, node 2), m
        176   -9.301E+00                                 F               0         Y-component position of node 59 (blade 3, node 2), m
        177    1.554E+02                                 F               0         Z-component position of node 59 (blade 3, node 2), m
        178    3.267E+01                                 F               0         X-component position of node 60 (blade 3, node 3), m
        179   -1.465E+01                                 F               0         Y-component position of node 60 (blade 3, node 3), m
        180    1.721E+02                                 F               0         Z-component position of node 60 (blade 3, node 3), m
        181    3.369E+01                                 F               0         X-component position of node 61 (blade 3, node 4), m
        182   -1.579E+01                                 F               0         Y-component position of node 61 (blade 3, node 4), m
        183    1.757E+02                                 F               0         Z-component position of node 61 (blade 3, node 4), m
        184    3.471E+01                                 F               0         X-component position of node 62 (blade 3, node 5), m
        185   -1.693E+01                                 F               0         Y-component position of node 62 (blade 3, node 5), m
        186    1.792E+02                                 F               0         Z-component position of node 62 (blade 3, node 5), m
        187    3.572E+01                                 F               0         X-component position of node 63 (blade 3, node 6), m
        188   -1.807E+01                                 F               0         Y-component position of node 63 (blade 3, node 6), m
        189    1.828E+02                                 F               0         Z-component position of node 63 (blade 3, node 6), m
        190    3.674E+01                                 F               0         X-component position of node 64 (blade 3, node 7), m
        191   -1.921E+01                                 F               0         Y-component position of node 64 (blade 3, node 7), m
        192    1.863E+02                                 F               0         Z-component position of node 64 (blade 3, node 7), m
        193    3.776E+01                                 F               0         X-component position of node 65 (blade 3, node 8), m
        194   -2.035E+01                                 F               0         Y-component position of node 65 (blade 3, node 8), m
        195    1.899E+02                                 F               0         Z-component position of node 65 (blade 3, node 8), m
        196    3.878E+01                                 F               0         X-component position of node 66 (blade 3, node 9), m
        197   -2.150E+01                                 F               0         Y-component position of node 66 (blade 3, node 9), m
        198    1.934E+02                                 F               0         Z-component position of node 66 (blade 3, node 9), m
        199    3.980E+01                                 F               0         X-component position of node 67 (blade 3, node 10), m
        200   -2.264E+01                                 F               0         Y-component position of node 67 (blade 3, node 10), m
        201    1.970E+02                                 F               0         Z-component position of node 67 (blade 3, node 10), m
        202    4.081E+01                                 F               0         X-component position of node 68 (blade 3, node 11), m
        203   -2.378E+01                                 F               0         Y-component position of node 68 (blade 3, node 11), m
        204    2.005E+02                                 F               0         Z-component position of node 68 (blade 3, node 11), m
        205    4.183E+01                                 F               0         X-component position of node 69 (blade 3, node 12), m
        206   -2.492E+01                                 F               0         Y-component position of node 69 (blade 3, node 12), m
        207    2.041E+02                                 F               0         Z-component position of node 69 (blade 3, node 12), m
        208    4.285E+01                                 F               0         X-component position of node 70 (blade 3, node 13), m
        209   -2.606E+01                                 F               0         Y-component position of node 70 (blade 3, node 13), m
        210    2.076E+02                                 F               0         Z-component position of node 70 (blade 3, node 13), m
        211    4.387E+01                                 F               0         X-component position of node 71 (blade 3, node 14), m