
Linearized model: Predictions were generated on 13-Feb-2024 at 11:29:37 using OpenFAST, compiled as a 64-bit application using single precision at commit v3.5.1
 linked with  NWTC Subroutine Library; ElastoDyn; InflowWind; AeroDyn; ServoDyn; HydroDyn; MAP++ (<1.20.10>, <Oct-20-2023>)

Description from the FAST input file: CCT-9 Campign 4 model. Input files to be run with OpenFAST 3.5.0. GitHub branch from Lu Wang (https://github.com/luwang00/openfast/tree/dev) compiled on March 7, 2023.

Simulation information:
   Simulation time:                  1212.6000 s
   Rotor Speed:                         0.7914 rad/s
   Azimuth:                             1.4050 rad
   Wind Speed:                         16.0000 m/s
   Number of continuous states:        14
   Number of discrete states:           0
   Number of constraint states:         0
   Number of inputs:                 1890
   Number of outputs:                  25
   Jacobians included in this file?    No

Order of continuous states:
   Row/Column Operating Point                                                   Rotating Frame? Derivative Order Description
   ---------- ---------------                                                   --------------- ---------------- -----------
          1     8.64533233643E+000                                                     F               2         Platform horizontal surge translation DOF (internal DOF index = DOF_Sg), m
          2    -6.18987143040E-001                                                     F               2         Platform horizontal sway translation DOF (internal DOF index = DOF_Sw), m
          3    -1.29313617945E-001                                                     F               2         Platform vertical heave translation DOF (internal DOF index = DOF_Hv), m
          4     5.16827441752E-002                                                     F               2         Platform roll tilt rotation DOF (internal DOF index = DOF_R), rad
          5     1.13023824990E-001                                                     F               2         Platform pitch tilt rotation DOF (internal DOF index = DOF_P), rad
          6     5.26858610101E-004                                                     F               2         Platform yaw rotation DOF (internal DOF index = DOF_Y), rad
          7     6.11740207672E+000                                                     F               2         Variable speed generator DOF (internal DOF index = DOF_GeAz), rad
          8    -1.20808792417E-004                                                     F               2         First time derivative of Platform horizontal surge translation DOF (internal DOF index = DOF_Sg), m/s
          9     7.80559726991E-004                                                     F               2         First time derivative of Platform horizontal sway translation DOF (internal DOF index = DOF_Sw), m/s
         10    -3.25697532389E-004                                                     F               2         First time derivative of Platform vertical heave translation DOF (internal DOF index = DOF_Hv), m/s
         11    -4.51541491202E-005                                                     F               2         First time derivative of Platform roll tilt rotation DOF (internal DOF index = DOF_R), rad/s
         12    -6.17890464127E-006                                                     F               2         First time derivative of Platform pitch tilt rotation DOF (internal DOF index = DOF_P), rad/s
         13     4.51640698884E-006                                                     F               2         First time derivative of Platform yaw rotation DOF (internal DOF index = DOF_Y), rad/s
         14     7.91410684586E-001                                                     F               2         First time derivative of Variable speed generator DOF (internal DOF index = DOF_GeAz), rad/s

Order of continuous state derivatives:
   Row/Column Operating Point                                                   Rotating Frame? Derivative Order Description
   ---------- ---------------                                                   --------------- ---------------- -----------
          1    -1.20808792417E-004                                                     F               2         First time derivative of Platform horizontal surge translation DOF (internal DOF index = DOF_Sg), m/s
          2     7.80559726991E-004                                                     F               2         First time derivative of Platform horizontal sway translation DOF (internal DOF index = DOF_Sw), m/s
          3    -3.25697532389E-004                                                     F               2         First time derivative of Platform vertical heave translation DOF (internal DOF index = DOF_Hv), m/s
          4    -4.51541491202E-005                                                     F               2         First time derivative of Platform roll tilt rotation DOF (internal DOF index = DOF_R), rad/s
          5    -6.17890464127E-006                                                     F               2         First time derivative of Platform pitch tilt rotation DOF (internal DOF index = DOF_P), rad/s
          6     4.51640698884E-006                                                     F               2         First time derivative of Platform yaw rotation DOF (internal DOF index = DOF_Y), rad/s
          7     7.91410684586E-001                                                     F               2         First time derivative of Variable speed generator DOF (internal DOF index = DOF_GeAz), rad/s
          8     3.23012354784E-004                                                     F               2         First time derivative of First time derivative of Platform horizontal surge translation DOF (internal DOF index = DOF_Sg), m/s/s
          9     2.13549486944E-004                                                     F               2         First time derivative of First time derivative of Platform horizontal sway translation DOF (internal DOF index = DOF_Sw), m/s/s
         10    -1.90564768855E-003                                                     F               2         First time derivative of First time derivative of Platform vertical heave translation DOF (internal DOF index = DOF_Hv), m/s/s
         11    -9.37395634537E-006                                                     F               2         First time derivative of First time derivative of Platform roll tilt rotation DOF (internal DOF index = DOF_R), rad/s/s
         12     1.22218143588E-005                                                     F               2         First time derivative of First time derivative of Platform pitch tilt rotation DOF (internal DOF index = DOF_P), rad/s/s
         13    -1.97745248443E-005                                                     F               2         First time derivative of First time derivative of Platform yaw rotation DOF (internal DOF index = DOF_Y), rad/s/s
         14     3.72563576093E-004                                                     F               2         First time derivative of First time derivative of Variable speed generator DOF (internal DOF index = DOF_GeAz), rad/s/s

Order of inputs:
     Column   Operating Point                                                   Rotating Frame? Derivative Order Description
   ---------- ---------------                                                   --------------- ---------------- -----------
          1     2.18683624268E+002                                                     F               0         Blade 1 X force, node 1, N
          2     2.32731590271E+001                                                     F               0         Blade 1 Y force, node 1, N
          3     1.43707687378E+002                                                     F               0         Blade 1 Z force, node 1, N
          4     8.12485229492E+002                                                     F               0         Blade 1 X force, node 2, N
          5     4.24280967712E+001                                                     F               0         Blade 1 Y force, node 2, N
          6     1.37379577637E+002                                                     F               0         Blade 1 Z force, node 2, N
          7     9.59229675293E+002                                                     F               0         Blade 1 X force, node 3, N
          8     2.00216236115E+001                                                     F               0         Blade 1 Y force, node 3, N
          9    -1.08560752869E+002                                                     F               0         Blade 1 Z force, node 3, N
         10     1.19310925293E+003                                                     F               0         Blade 1 X force, node 4, N
         11     2.74426293373E+000                                                     F               0         Blade 1 Y force, node 4, N
         12    -3.34555297852E+002                                                     F               0         Blade 1 Z force, node 4, N
         13     1.42699951172E+003                                                     F               0         Blade 1 X force, node 5, N
         14    -1.45332689285E+001                                                     F               0         Blade 1 Y force, node 5, N
         15    -5.60554504395E+002                                                     F               0         Blade 1 Z force, node 5, N
         16     1.66088183594E+003                                                     F               0         Blade 1 X force, node 6, N
         17    -3.18108177185E+001                                                     F               0         Blade 1 Y force, node 6, N
         18    -7.86551452637E+002                                                     F               0         Blade 1 Z force, node 6, N
         19     1.89475122070E+003                                                     F               0         Blade 1 X force, node 7, N
         20    -4.90880432129E+001                                                     F               0         Blade 1 Y force, node 7, N
         21    -1.01254162598E+003                                                     F               0         Blade 1 Z force, node 7, N
         22     2.12863085938E+003                                                     F               0         Blade 1 X force, node 8, N
         23    -6.63654022217E+001                                                     F               0         Blade 1 Y force, node 8, N
         24    -1.23853613281E+003                                                     F               0         Blade 1 Z force, node 8, N
         25     2.36251074219E+003                                                     F               0         Blade 1 X force, node 9, N
         26    -8.36427688599E+001                                                     F               0         Blade 1 Y force, node 9, N
         27    -1.46453063965E+003                                                     F               0         Blade 1 Z force, node 9, N
         28     2.59639013672E+003                                                     F               0         Blade 1 X force, node 10, N
         29    -1.00920127869E+002                                                     F               0         Blade 1 Y force, node 10, N
         30    -1.69052514648E+003                                                     F               0         Blade 1 Z force, node 10, N
         31     2.83027001953E+003                                                     F               0         Blade 1 X force, node 11, N
         32    -1.18197494507E+002                                                     F               0         Blade 1 Y force, node 11, N
         33    -1.91651965332E+003                                                     F               0         Blade 1 Z force, node 11, N
         34     3.06417114258E+003                                                     F               0         Blade 1 X force, node 12, N
         35    -1.35475830078E+002                                                     F               0         Blade 1 Y force, node 12, N
         36    -2.14252954102E+003                                                     F               0         Blade 1 Z force, node 12, N
         37     3.29805322266E+003                                                     F               0         Blade 1 X force, node 13, N
         38    -1.52753372192E+002                                                     F               0         Blade 1 Y force, node 13, N
         39    -2.36852636719E+003                                                     F               0         Blade 1 Z force, node 13, N
         40     3.53191186523E+003                                                     F               0         Blade 1 X force, node 14, N
         41    -1.70029815674E+002                                                     F               0         Blade 1 Y force, node 14, N
         42    -2.59450634766E+003                                                     F               0         Blade 1 Z force, node 14, N
         43     3.76581665039E+003                                                     F               0         Blade 1 X force, node 15, N
         44    -1.87308441162E+002                                                     F               0         Blade 1 Y force, node 15, N
         45    -2.82051977539E+003                                                     F               0         Blade 1 Z force, node 15, N
         46     3.99967016602E+003                                                     F               0         Blade 1 X force, node 16, N
         47    -2.04584442139E+002                                                     F               0         Blade 1 Y force, node 16, N
         48    -3.04649438477E+003                                                     F               0         Blade 1 Z force, node 16, N
         49     4.90653027344E+003                                                     F               0         Blade 1 X force, node 17, N
         50    -2.56330596924E+002                                                     F               0         Blade 1 Y force, node 17, N
         51    -3.78549926758E+003                                                     F               0         Blade 1 Z force, node 17, N
         52     3.72295312500E+003                                                     F               0         Blade 1 X force, node 18, N
         53    -1.90056045532E+002                                                     F               0         Blade 1 Y force, node 18, N
         54    -2.83235302734E+003                                                     F               0         Blade 1 Z force, node 18, N
         55     4.53960546875E+003                                                     F               0         Blade 1 X force, node 19, N
         56    -2.23349151611E+002                                                     F               0         Blade 1 Y force, node 19, N
         57    -3.37803955078E+003                                                     F               0         Blade 1 Z force, node 19, N
         58     3.84762963867E+003                                                     F               0         Blade 1 X force, node 20, N
         59    -1.82650253296E+002                                                     F               0         Blade 1 Y force, node 20, N
         60    -2.80321142578E+003                                                     F               0         Blade 1 Z force, node 20, N
         61     5.63410400391E+003                                                     F               0         Blade 1 X force, node 21, N
         62    -2.56588226318E+002                                                     F               0         Blade 1 Y force, node 21, N
         63    -4.00690380859E+003                                                     F               0         Blade 1 Z force, node 21, N
         64     4.91547802734E+003                                                     F               0         Blade 1 X force, node 22, N
         65    -2.14824417114E+002                                                     F               0         Blade 1 Y force, node 22, N
         66    -3.41446240234E+003                                                     F               0         Blade 1 Z force, node 22, N
         67     4.99559863281E+003                                                     F               0         Blade 1 X force, node 23, N
         68    -2.10146713257E+002                                                     F               0         Blade 1 Y force, node 23, N
         69    -3.39646923828E+003                                                     F               0         Blade 1 Z force, node 23, N
         70     5.16062158203E+003                                                     F               0         Blade 1 X force, node 24, N
         71    -2.09007904053E+002                                                     F               0         Blade 1 Y force, node 24, N
         72    -3.43590576172E+003                                                     F               0         Blade 1 Z force, node 24, N
         73     5.22043896484E+003                                                     F               0         Blade 1 X force, node 25, N
         74    -2.03774795532E+002                                                     F               0         Blade 1 Y force, node 25, N
         75    -3.40679833984E+003                                                     F               0         Blade 1 Z force, node 25, N
         76     5.30601757812E+003                                                     F               0         Blade 1 X force, node 26, N
         77    -1.99651367188E+002                                                     F               0         Blade 1 Y force, node 26, N
         78    -3.39543872070E+003                                                     F               0         Blade 1 Z force, node 26, N
         79     6.27314550781E+003                                                     F               0         Blade 1 X force, node 27, N
         80    -2.27007339478E+002                                                     F               0         Blade 1 Y force, node 27, N
         81    -3.93297680664E+003                                                     F               0         Blade 1 Z force, node 27, N
         82     4.58214111328E+003                                                     F               0         Blade 1 X force, node 28, N
         83    -1.59714904785E+002                                                     F               0         Blade 1 Y force, node 28, N
         84    -2.81786987305E+003                                                     F               0         Blade 1 Z force, node 28, N
         85     5.53213525391E+003                                                     F               0         Blade 1 X force, node 29, N
         86    -1.86808700562E+002                                                     F               0         Blade 1 Y force, node 29, N
         87    -3.34788867188E+003                                                     F               0         Blade 1 Z force, node 29, N
         88     4.64737451172E+003                                                     F               0         Blade 1 X force, node 30, N
         89    -1.52007080078E+002                                                     F               0         Blade 1 Y force, node 30, N
         90    -2.76811035156E+003                                                     F               0         Blade 1 Z force, node 30, N
         91     6.61248779297E+003                                                     F               0         Blade 1 X force, node 31, N
         92    -2.08349487305E+002                                                     F               0         Blade 1 Y force, node 31, N
         93    -3.86715893555E+003                                                     F               0         Blade 1 Z force, node 31, N
         94     5.71281689453E+003                                                     F               0         Blade 1 X force, node 32, N
         95    -1.73449035645E+002                                                     F               0         Blade 1 Y force, node 32, N
         96    -3.28200097656E+003                                                     F               0         Blade 1 Z force, node 32, N
         97     5.76349267578E+003                                                     F               0         Blade 1 X force, node 33, N
         98    -1.68914550781E+002                                                     F               0         Blade 1 Y force, node 33, N
         99    -3.25643066406E+003                                                     F               0         Blade 1 Z force, node 33, N
        100     5.81315625000E+003                                                     F               0         Blade 1 X force, node 34, N
        101    -1.64418075562E+002                                                     F               0         Blade 1 Y force, node 34, N
        102    -3.23089843750E+003                                                     F               0         Blade 1 Z force, node 34, N
        103     5.85285742188E+003                                                     F               0         Blade 1 X force, node 35, N
        104    -1.59900802612E+002                                                     F               0         Blade 1 Y force, node 35, N
        105    -3.20217797852E+003                                                     F               0         Blade 1 Z force, node 35, N
        106     5.88850976562E+003                                                     F               0         Blade 1 X force, node 36, N
        107    -1.55335662842E+002                                                     F               0         Blade 1 Y force, node 36, N
        108    -3.17180786133E+003                                                     F               0         Blade 1 Z force, node 36, N
        109     6.92396289062E+003                                                     F               0         Blade 1 X force, node 37, N
        110    -1.75836410522E+002                                                     F               0         Blade 1 Y force, node 37, N
        111    -3.66819384766E+003                                                     F               0         Blade 1 Z force, node 37, N
        112     4.95179052734E+003                                                     F               0         Blade 1 X force, node 38, N
        113    -1.21219642639E+002                                                     F               0         Blade 1 Y force, node 38, N
        114    -2.58255786133E+003                                                     F               0         Blade 1 Z force, node 38, N
        115     5.97341650391E+003                                                     F               0         Blade 1 X force, node 39, N
        116    -1.41741683960E+002                                                     F               0         Blade 1 Y force, node 39, N
        117    -3.07497167969E+003                                                     F               0         Blade 1 Z force, node 39, N
        118     5.01475341797E+003                                                     F               0         Blade 1 X force, node 40, N
        119    -1.15236572266E+002                                                     F               0         Blade 1 Y force, node 40, N
        120    -2.54764404297E+003                                                     F               0         Blade 1 Z force, node 40, N
        121     6.99248095703E+003                                                     F               0         Blade 1 X force, node 41, N
        122    -1.54714096069E+002                                                     F               0         Blade 1 Y force, node 41, N
        123    -3.49863598633E+003                                                     F               0         Blade 1 Z force, node 41, N
        124     6.02227685547E+003                                                     F               0         Blade 1 X force, node 42, N
        125    -1.28300491333E+002                                                     F               0         Blade 1 Y force, node 42, N
        126    -2.96865649414E+003                                                     F               0         Blade 1 Z force, node 42, N
        127     6.03166796875E+003                                                     F               0         Blade 1 X force, node 43, N
        128    -1.23872703552E+002                                                     F               0         Blade 1 Y force, node 43, N
        129    -2.93161572266E+003                                                     F               0         Blade 1 Z force, node 43, N
        130     6.07153808594E+003                                                     F               0         Blade 1 X force, node 44, N
        131    -1.20096824646E+002                                                     F               0         Blade 1 Y force, node 44, N
        132    -2.90962207031E+003                                                     F               0         Blade 1 Z force, node 44, N
        133     6.01057275391E+003                                                     F               0         Blade 1 X force, node 45, N
        134    -1.14584976196E+002                                                     F               0         Blade 1 Y force, node 45, N
        135    -2.84163476562E+003                                                     F               0         Blade 1 Z force, node 45, N
        136     6.04362255859E+003                                                     F               0         Blade 1 X force, node 46, N
        137    -1.10969833374E+002                                                     F               0         Blade 1 Y force, node 46, N
        138    -2.81903466797E+003                                                     F               0         Blade 1 Z force, node 46, N
        139     7.09629638672E+003                                                     F               0         Blade 1 X force, node 47, N
        140    -1.24987838745E+002                                                     F               0         Blade 1 Y force, node 47, N
        141    -3.26223364258E+003                                                     F               0         Blade 1 Z force, node 47, N
        142     4.98824853516E+003                                                     F               0         Blade 1 X force, node 48, N
        143    -8.43520126343E+001                                                     F               0         Blade 1 Y force, node 48, N
        144    -2.26157080078E+003                                                     F               0         Blade 1 Z force, node 48, N
        145     6.03213769531E+003                                                     F               0         Blade 1 X force, node 49, N
        146    -9.85141677856E+001                                                     F               0         Blade 1 Y force, node 49, N
        147    -2.70342285156E+003                                                     F               0         Blade 1 Z force, node 49, N
        148     5.07598437500E+003                                                     F               0         Blade 1 X force, node 50, N
        149    -7.99181900024E+001                                                     F               0         Blade 1 Y force, node 50, N
        150    -2.24806640625E+003                                                     F               0         Blade 1 Z force, node 50, N
        151     6.96165966797E+003                                                     F               0         Blade 1 X force, node 51, N
        152    -1.04928764343E+002                                                     F               0         Blade 1 Y force, node 51, N
        153    -3.04107617188E+003                                                     F               0         Blade 1 Z force, node 51, N
        154     5.99865673828E+003                                                     F               0         Blade 1 X force, node 52, N
        155    -8.65030746460E+001                                                     F               0         Blade 1 Y force, node 52, N
        156    -2.58519042969E+003                                                     F               0         Blade 1 Z force, node 52, N
        157     5.98328125000E+003                                                     F               0         Blade 1 X force, node 53, N
        158    -8.25991516113E+001                                                     F               0         Blade 1 Y force, node 53, N