
Linearized model: Predictions were generated on 12-Jan-2024 at 09:28:28 using OpenFAST, compiled as a 64-bit application using single precision at commit v3.5.1
 linked with  NWTC Subroutine Library; ElastoDyn; InflowWind; AeroDyn; ServoDyn; HydroDyn; MAP++ (<1.20.10>, <Oct-20-2023>)

Description from the FAST input file: CCT-9 Campign 4 model. Input files to be run with OpenFAST 3.5.0. GitHub branch from Lu Wang (https://github.com/luwang00/openfast/tree/dev) compiled on March 7, 2023.

Simulation information:
   Simulation time:                   501.2500 s
   Rotor Speed:                         0.8768 rad/s
   Azimuth:                             4.9527 rad
   Wind Speed:                         10.0000 m/s
   Number of continuous states:         0
   Number of discrete states:           0
   Number of constraint states:         0
   Number of inputs:                  303
   Number of outputs:                   1
   Jacobians included in this file?    No

Order of inputs:
     Column   Operating Point                     Rotating Frame? Derivative Order Description
   ---------- ---------------                     --------------- ---------------- -----------
          1   -1.080E+01                                 F               0         X-component position of node 1 (hub), m
          2    0.000E+00                                 F               0         Y-component position of node 1 (hub), m
          3    1.497E+02                                 F               0         Z-component position of node 1 (hub), m
          4    1.692E+01                                 F               0         X-component position of node 2 (blade 1, node 1), m
          5   -2.372E+00                                 F               0         Y-component position of node 2 (blade 1, node 1), m
          6    1.512E+02                                 F               0         Z-component position of node 2 (blade 1, node 1), m
          7    1.699E+01                                 F               0         X-component position of node 3 (blade 1, node 2), m
          8   -1.092E+00                                 F               0         Y-component position of node 3 (blade 1, node 2), m
          9    1.515E+02                                 F               0         Z-component position of node 3 (blade 1, node 2), m
         10    1.792E+01                                 F               0         X-component position of node 4 (blade 1, node 3), m
         11    1.631E+01                                 F               0         Y-component position of node 4 (blade 1, node 3), m
         12    1.566E+02                                 F               0         Z-component position of node 4 (blade 1, node 3), m
         13    1.811E+01                                 F               0         X-component position of node 5 (blade 1, node 4), m
         14    2.002E+01                                 F               0         Y-component position of node 5 (blade 1, node 4), m
         15    1.577E+02                                 F               0         Z-component position of node 5 (blade 1, node 4), m
         16    1.831E+01                                 F               0         X-component position of node 6 (blade 1, node 5), m
         17    2.373E+01                                 F               0         Y-component position of node 6 (blade 1, node 5), m
         18    1.588E+02                                 F               0         Z-component position of node 6 (blade 1, node 5), m
         19    1.851E+01                                 F               0         X-component position of node 7 (blade 1, node 6), m
         20    2.743E+01                                 F               0         Y-component position of node 7 (blade 1, node 6), m
         21    1.599E+02                                 F               0         Z-component position of node 7 (blade 1, node 6), m
         22    1.870E+01                                 F               0         X-component position of node 8 (blade 1, node 7), m
         23    3.114E+01                                 F               0         Y-component position of node 8 (blade 1, node 7), m
         24    1.609E+02                                 F               0         Z-component position of node 8 (blade 1, node 7), m
         25    1.890E+01                                 F               0         X-component position of node 9 (blade 1, node 8), m
         26    3.485E+01                                 F               0         Y-component position of node 9 (blade 1, node 8), m
         27    1.620E+02                                 F               0         Z-component position of node 9 (blade 1, node 8), m
         28    1.910E+01                                 F               0         X-component position of node 10 (blade 1, node 9), m
         29    3.856E+01                                 F               0         Y-component position of node 10 (blade 1, node 9), m
         30    1.631E+02                                 F               0         Z-component position of node 10 (blade 1, node 9), m
         31    1.930E+01                                 F               0         X-component position of node 11 (blade 1, node 10), m
         32    4.227E+01                                 F               0         Y-component position of node 11 (blade 1, node 10), m
         33    1.642E+02                                 F               0         Z-component position of node 11 (blade 1, node 10), m
         34    1.949E+01                                 F               0         X-component position of node 12 (blade 1, node 11), m
         35    4.597E+01                                 F               0         Y-component position of node 12 (blade 1, node 11), m
         36    1.653E+02                                 F               0         Z-component position of node 12 (blade 1, node 11), m
         37    1.969E+01                                 F               0         X-component position of node 13 (blade 1, node 12), m
         38    4.968E+01                                 F               0         Y-component position of node 13 (blade 1, node 12), m
         39    1.664E+02                                 F               0         Z-component position of node 13 (blade 1, node 12), m
         40    1.989E+01                                 F               0         X-component position of node 14 (blade 1, node 13), m
         41    5.339E+01                                 F               0         Y-component position of node 14 (blade 1, node 13), m
         42    1.674E+02                                 F               0         Z-component position of node 14 (blade 1, node 13), m
         43    2.008E+01                                 F               0         X-component position of node 15 (blade 1, node 14), m
         44    5.710E+01                                 F               0         Y-component position of node 15 (blade 1, node 14), m
         45    1.685E+02                                 F               0         Z-component position of node 15 (blade 1, node 14), m
         46    2.028E+01                                 F               0         X-component position of node 16 (blade 1, node 15), m
         47    6.081E+01                                 F               0         Y-component position of node 16 (blade 1, node 15), m
         48    1.696E+02                                 F               0         Z-component position of node 16 (blade 1, node 15), m
         49    2.048E+01                                 F               0         X-component position of node 17 (blade 1, node 16), m
         50    6.451E+01                                 F               0         Y-component position of node 17 (blade 1, node 16), m
         51    1.707E+02                                 F               0         Z-component position of node 17 (blade 1, node 16), m
         52    2.067E+01                                 F               0         X-component position of node 18 (blade 1, node 17), m
         53    6.822E+01                                 F               0         Y-component position of node 18 (blade 1, node 17), m
         54    1.718E+02                                 F               0         Z-component position of node 18 (blade 1, node 17), m
         55    2.087E+01                                 F               0         X-component position of node 19 (blade 1, node 18), m
         56    7.193E+01                                 F               0         Y-component position of node 19 (blade 1, node 18), m
         57    1.728E+02                                 F               0         Z-component position of node 19 (blade 1, node 18), m
         58    2.107E+01                                 F               0         X-component position of node 20 (blade 1, node 19), m
         59    7.564E+01                                 F               0         Y-component position of node 20 (blade 1, node 19), m
         60    1.739E+02                                 F               0         Z-component position of node 20 (blade 1, node 19), m
         61    2.127E+01                                 F               0         X-component position of node 21 (blade 1, node 20), m
         62    7.934E+01                                 F               0         Y-component position of node 21 (blade 1, node 20), m
         63    1.750E+02                                 F               0         Z-component position of node 21 (blade 1, node 20), m
         64    2.146E+01                                 F               0         X-component position of node 22 (blade 1, node 21), m
         65    8.305E+01                                 F               0         Y-component position of node 22 (blade 1, node 21), m
         66    1.761E+02                                 F               0         Z-component position of node 22 (blade 1, node 21), m
         67    2.166E+01                                 F               0         X-component position of node 23 (blade 1, node 22), m
         68    8.676E+01                                 F               0         Y-component position of node 23 (blade 1, node 22), m
         69    1.772E+02                                 F               0         Z-component position of node 23 (blade 1, node 22), m
         70    2.186E+01                                 F               0         X-component position of node 24 (blade 1, node 23), m
         71    9.047E+01                                 F               0         Y-component position of node 24 (blade 1, node 23), m
         72    1.783E+02                                 F               0         Z-component position of node 24 (blade 1, node 23), m
         73    2.205E+01                                 F               0         X-component position of node 25 (blade 1, node 24), m
         74    9.418E+01                                 F               0         Y-component position of node 25 (blade 1, node 24), m
         75    1.793E+02                                 F               0         Z-component position of node 25 (blade 1, node 24), m
         76    2.225E+01                                 F               0         X-component position of node 26 (blade 1, node 25), m
         77    9.788E+01                                 F               0         Y-component position of node 26 (blade 1, node 25), m
         78    1.804E+02                                 F               0         Z-component position of node 26 (blade 1, node 25), m
         79    2.245E+01                                 F               0         X-component position of node 27 (blade 1, node 26), m
         80    1.016E+02                                 F               0         Y-component position of node 27 (blade 1, node 26), m
         81    1.815E+02                                 F               0         Z-component position of node 27 (blade 1, node 26), m
         82    2.265E+01                                 F               0         X-component position of node 28 (blade 1, node 27), m
         83    1.053E+02                                 F               0         Y-component position of node 28 (blade 1, node 27), m
         84    1.826E+02                                 F               0         Z-component position of node 28 (blade 1, node 27), m
         85    2.281E+01                                 F               0         X-component position of node 29 (blade 1, node 28), m
         86    1.084E+02                                 F               0         Y-component position of node 29 (blade 1, node 28), m
         87    1.835E+02                                 F               0         Z-component position of node 29 (blade 1, node 28), m
         88    1.757E+01                                 F               0         X-component position of node 30 (blade 2, node 1), m
         89   -1.170E+01                                 F               0         Y-component position of node 30 (blade 2, node 1), m
         90    1.533E+02                                 F               0         Z-component position of node 30 (blade 2, node 1), m
         91    1.780E+01                                 F               0         X-component position of node 31 (blade 2, node 2), m
         92   -1.267E+01                                 F               0         Y-component position of node 31 (blade 2, node 2), m
         93    1.542E+02                                 F               0         Z-component position of node 31 (blade 2, node 2), m
         94    2.086E+01                                 F               0         X-component position of node 32 (blade 2, node 3), m
         95   -2.584E+01                                 F               0         Y-component position of node 32 (blade 2, node 3), m
         96    1.663E+02                                 F               0         Z-component position of node 32 (blade 2, node 3), m
         97    2.151E+01                                 F               0         X-component position of node 33 (blade 2, node 4), m
         98   -2.864E+01                                 F               0         Y-component position of node 33 (blade 2, node 4), m
         99    1.689E+02                                 F               0         Z-component position of node 33 (blade 2, node 4), m
        100    2.217E+01                                 F               0         X-component position of node 34 (blade 2, node 5), m
        101   -3.145E+01                                 F               0         Y-component position of node 34 (blade 2, node 5), m
        102    1.715E+02                                 F               0         Z-component position of node 34 (blade 2, node 5), m
        103    2.282E+01                                 F               0         X-component position of node 35 (blade 2, node 6), m
        104   -3.425E+01                                 F               0         Y-component position of node 35 (blade 2, node 6), m
        105    1.741E+02                                 F               0         Z-component position of node 35 (blade 2, node 6), m
        106    2.347E+01                                 F               0         X-component position of node 36 (blade 2, node 7), m
        107   -3.706E+01                                 F               0         Y-component position of node 36 (blade 2, node 7), m
        108    1.766E+02                                 F               0         Z-component position of node 36 (blade 2, node 7), m
        109    2.412E+01                                 F               0         X-component position of node 37 (blade 2, node 8), m
        110   -3.986E+01                                 F               0         Y-component position of node 37 (blade 2, node 8), m
        111    1.792E+02                                 F               0         Z-component position of node 37 (blade 2, node 8), m
        112    2.478E+01                                 F               0         X-component position of node 38 (blade 2, node 9), m
        113   -4.267E+01                                 F               0         Y-component position of node 38 (blade 2, node 9), m
        114    1.818E+02                                 F               0         Z-component position of node 38 (blade 2, node 9), m
        115    2.543E+01                                 F               0         X-component position of node 39 (blade 2, node 10), m
        116   -4.547E+01                                 F               0         Y-component position of node 39 (blade 2, node 10), m
        117    1.844E+02                                 F               0         Z-component position of node 39 (blade 2, node 10), m
        118    2.608E+01                                 F               0         X-component position of node 40 (blade 2, node 11), m
        119   -4.828E+01                                 F               0         Y-component position of node 40 (blade 2, node 11), m
        120    1.870E+02                                 F               0         Z-component position of node 40 (blade 2, node 11), m
        121    2.673E+01                                 F               0         X-component position of node 41 (blade 2, node 12), m
        122   -5.109E+01                                 F               0         Y-component position of node 41 (blade 2, node 12), m
        123    1.895E+02                                 F               0         Z-component position of node 41 (blade 2, node 12), m
        124    2.738E+01                                 F               0         X-component position of node 42 (blade 2, node 13), m
        125   -5.389E+01                                 F               0         Y-component position of node 42 (blade 2, node 13), m
        126    1.921E+02                                 F               0         Z-component position of node 42 (blade 2, node 13), m
        127    2.804E+01                                 F               0         X-component position of node 43 (blade 2, node 14), m
        128   -5.670E+01                                 F               0         Y-component position of node 43 (blade 2, node 14), m
        129    1.947E+02                                 F               0         Z-component position of node 43 (blade 2, node 14), m
        130    2.869E+01                                 F               0         X-component position of node 44 (blade 2, node 15), m
        131   -5.950E+01                                 F               0         Y-component position of node 44 (blade 2, node 15), m
        132    1.973E+02                                 F               0         Z-component position of node 44 (blade 2, node 15), m
        133    2.934E+01                                 F               0         X-component position of node 45 (blade 2, node 16), m
        134   -6.231E+01                                 F               0         Y-component position of node 45 (blade 2, node 16), m
        135    1.999E+02                                 F               0         Z-component position of node 45 (blade 2, node 16), m
        136    2.999E+01                                 F               0         X-component position of node 46 (blade 2, node 17), m
        137   -6.511E+01                                 F               0         Y-component position of node 46 (blade 2, node 17), m
        138    2.024E+02                                 F               0         Z-component position of node 46 (blade 2, node 17), m
        139    3.065E+01                                 F               0         X-component position of node 47 (blade 2, node 18), m
        140   -6.792E+01                                 F               0         Y-component position of node 47 (blade 2, node 18), m
        141    2.050E+02                                 F               0         Z-component position of node 47 (blade 2, node 18), m
        142    3.130E+01                                 F               0         X-component position of node 48 (blade 2, node 19), m
        143   -7.072E+01                                 F               0         Y-component position of node 48 (blade 2, node 19), m
        144    2.076E+02                                 F               0         Z-component position of node 48 (blade 2, node 19), m
        145    3.195E+01                                 F               0         X-component position of node 49 (blade 2, node 20), m
        146   -7.353E+01                                 F               0         Y-component position of node 49 (blade 2, node 20), m
        147    2.102E+02                                 F               0         Z-component position of node 49 (blade 2, node 20), m
        148    3.260E+01                                 F               0         X-component position of node 50 (blade 2, node 21), m
        149   -7.633E+01                                 F               0         Y-component position of node 50 (blade 2, node 21), m
        150    2.128E+02                                 F               0         Z-component position of node 50 (blade 2, node 21), m
        151    3.326E+01                                 F               0         X-component position of node 51 (blade 2, node 22), m
        152   -7.914E+01                                 F               0         Y-component position of node 51 (blade 2, node 22), m
        153    2.154E+02                                 F               0         Z-component position of node 51 (blade 2, node 22), m
        154    3.391E+01                                 F               0         X-component position of node 52 (blade 2, node 23), m
        155   -8.194E+01                                 F               0         Y-component position of node 52 (blade 2, node 23), m
        156    2.179E+02                                 F               0         Z-component position of node 52 (blade 2, node 23), m
        157    3.456E+01                                 F               0         X-component position of node 53 (blade 2, node 24), m
        158   -8.475E+01                                 F               0         Y-component position of node 53 (blade 2, node 24), m
        159    2.205E+02                                 F               0         Z-component position of node 53 (blade 2, node 24), m
        160    3.521E+01                                 F               0         X-component position of node 54 (blade 2, node 25), m
        161   -8.756E+01                                 F               0         Y-component position of node 54 (blade 2, node 25), m
        162    2.231E+02                                 F               0         Z-component position of node 54 (blade 2, node 25), m
        163    3.587E+01                                 F               0         X-component position of node 55 (blade 2, node 26), m
        164   -9.036E+01                                 F               0         Y-component position of node 55 (blade 2, node 26), m
        165    2.257E+02                                 F               0         Z-component position of node 55 (blade 2, node 26), m
        166    3.652E+01                                 F               0         X-component position of node 56 (blade 2, node 27), m
        167   -9.317E+01                                 F               0         Y-component position of node 56 (blade 2, node 27), m
        168    2.283E+02                                 F               0         Z-component position of node 56 (blade 2, node 27), m
        169    3.707E+01                                 F               0         X-component position of node 57 (blade 2, node 28), m
        170   -9.554E+01                                 F               0         Y-component position of node 57 (blade 2, node 28), m
        171    2.304E+02                                 F               0         Z-component position of node 57 (blade 2, node 28), m
        172    1.542E+01                                 F               0         X-component position of node 58 (blade 3, node 1), m
        173   -8.976E+00                                 F               0         Y-component position of node 58 (blade 3, node 1), m
        174    1.444E+02                                 F               0         Z-component position of node 58 (blade 3, node 1), m
        175    1.513E+01                                 F               0         X-component position of node 59 (blade 3, node 2), m
        176   -9.287E+00                                 F               0         Y-component position of node 59 (blade 3, node 2), m
        177    1.431E+02                                 F               0         Z-component position of node 59 (blade 3, node 2), m
        178    1.114E+01                                 F               0         X-component position of node 60 (blade 3, node 3), m
        179   -1.352E+01                                 F               0         Y-component position of node 60 (blade 3, node 3), m
        180    1.259E+02                                 F               0         Z-component position of node 60 (blade 3, node 3), m
        181    1.029E+01                                 F               0         X-component position of node 61 (blade 3, node 4), m
        182   -1.443E+01                                 F               0         Y-component position of node 61 (blade 3, node 4), m
        183    1.222E+02                                 F               0         Z-component position of node 61 (blade 3, node 4), m
        184    9.445E+00                                 F               0         X-component position of node 62 (blade 3, node 5), m
        185   -1.533E+01                                 F               0         Y-component position of node 62 (blade 3, node 5), m
        186    1.186E+02                                 F               0         Z-component position of node 62 (blade 3, node 5), m
        187    8.595E+00                                 F               0         X-component position of node 63 (blade 3, node 6), m
        188   -1.623E+01                                 F               0         Y-component position of node 63 (blade 3, node 6), m
        189    1.149E+02                                 F               0         Z-component position of node 63 (blade 3, node 6), m
        190    7.746E+00                                 F               0         X-component position of node 64 (blade 3, node 7), m
        191   -1.713E+01                                 F               0         Y-component position of node 64 (blade 3, node 7), m
        192    1.112E+02                                 F               0         Z-component position of node 64 (blade 3, node 7), m
        193    6.896E+00                                 F               0         X-component position of node 65 (blade 3, node 8), m
        194   -1.804E+01                                 F               0         Y-component position of node 65 (blade 3, node 8), m
        195    1.076E+02                                 F               0         Z-component position of node 65 (blade 3, node 8), m
        196    6.047E+00                                 F               0         X-component position of node 66 (blade 3, node 9), m
        197   -1.894E+01                                 F               0         Y-component position of node 66 (blade 3, node 9), m
        198    1.039E+02                                 F               0         Z-component position of node 66 (blade 3, node 9), m
        199    5.198E+00                                 F               0         X-component position of node 67 (blade 3, node 10), m
        200   -1.984E+01                                 F               0         Y-component position of node 67 (blade 3, node 10), m
        201    1.003E+02                                 F               0         Z-component position of node 67 (blade 3, node 10), m
        202    4.348E+00                                 F               0         X-component position of node 68 (blade 3, node 11), m
        203   -2.074E+01                                 F               0         Y-component position of node 68 (blade 3, node 11), m
        204    9.659E+01                                 F               0         Z-component position of node 68 (blade 3, node 11), m
        205    3.499E+00                                 F               0         X-component position of node 69 (blade 3, node 12), m
        206   -2.165E+01                                 F               0         Y-component position of node 69 (blade 3, node 12), m
        207    9.292E+01                                 F               0         Z-component position of node 69 (blade 3, node 12), m
        208    2.649E+00                                 F               0         X-component position of node 70 (blade 3, node 13), m
        209   -2.255E+01                                 F               0         Y-component position of node 70 (blade 3, node 13), m
        210    8.926E+01                                 F               0         Z-component position of node 70 (blade 3, node 13), m
        211    1.800E+00                                 F               0         X-component position of node 71 (blade 3, node 14), m