
Linearized model: Predictions were generated on 13-Feb-2024 at 12:12:09 using OpenFAST, compiled as a 64-bit application using single precision at commit v3.5.1
 linked with  NWTC Subroutine Library; ElastoDyn; InflowWind; AeroDyn; ServoDyn; HydroDyn; MAP++ (<1.20.10>, <Oct-20-2023>)

Description from the FAST input file: CCT-9 Campign 4 model. Input files to be run with OpenFAST 3.5.0. GitHub branch from Lu Wang (https://github.com/luwang00/openfast/tree/dev) compiled on March 7, 2023.

Simulation information:
   Simulation time:                   771.7750 s
   Rotor Speed:                         0.7920 rad/s
   Azimuth:                             1.0608 rad
   Wind Speed:                         24.0000 m/s
   Number of continuous states:         0
   Number of discrete states:           0
   Number of constraint states:         0
   Number of inputs:                  303
   Number of outputs:                   1
   Jacobians included in this file?    No

Order of inputs:
     Column   Operating Point                                                   Rotating Frame? Derivative Order Description
   ---------- ---------------                                                   --------------- ---------------- -----------
          1    -1.08005075455E+001                                                     F               0         X-component position of node 1 (hub), m
          2     0.00000000000E+000                                                     F               0         Y-component position of node 1 (hub), m
          3     1.49740173340E+002                                                     F               0         Z-component position of node 1 (hub), m
          4     1.12969484329E+001                                                     F               0         X-component position of node 2 (blade 1, node 1), m
          5    -1.42026185989E+001                                                     F               0         Y-component position of node 2 (blade 1, node 1), m
          6     1.52127563477E+002                                                     F               0         Z-component position of node 2 (blade 1, node 1), m
          7     1.14157266617E+001                                                     F               0         X-component position of node 3 (blade 1, node 2), m
          8    -1.54036445618E+001                                                     F               0         Y-component position of node 3 (blade 1, node 2), m
          9     1.52697998047E+002                                                     F               0         Z-component position of node 3 (blade 1, node 2), m
         10     1.30309009552E+001                                                     F               0         X-component position of node 4 (blade 1, node 3), m
         11    -3.17355136871E+001                                                     F               0         Y-component position of node 4 (blade 1, node 3), m
         12     1.60455001831E+002                                                     F               0         Z-component position of node 4 (blade 1, node 3), m
         13     1.33750247955E+001                                                     F               0         X-component position of node 5 (blade 1, node 4), m
         14    -3.52151145935E+001                                                     F               0         Y-component position of node 5 (blade 1, node 4), m
         15     1.62107681274E+002                                                     F               0         Z-component position of node 5 (blade 1, node 4), m
         16     1.37192125320E+001                                                     F               0         X-component position of node 6 (blade 1, node 5), m
         17    -3.86953773499E+001                                                     F               0         Y-component position of node 6 (blade 1, node 5), m
         18     1.63760665894E+002                                                     F               0         Z-component position of node 6 (blade 1, node 5), m
         19     1.40633363724E+001                                                     F               0         X-component position of node 7 (blade 1, node 6), m
         20    -4.21749916077E+001                                                     F               0         Y-component position of node 7 (blade 1, node 6), m
         21     1.65413360596E+002                                                     F               0         Z-component position of node 7 (blade 1, node 6), m
         22     1.44074611664E+001                                                     F               0         X-component position of node 8 (blade 1, node 7), m
         23    -4.56546173096E+001                                                     F               0         Y-component position of node 8 (blade 1, node 7), m
         24     1.67066040039E+002                                                     F               0         Z-component position of node 8 (blade 1, node 7), m
         25     1.47516479492E+001                                                     F               0         X-component position of node 9 (blade 1, node 8), m
         26    -4.91348686218E+001                                                     F               0         Y-component position of node 9 (blade 1, node 8), m
         27     1.68719024658E+002                                                     F               0         Z-component position of node 9 (blade 1, node 8), m
         28     1.50957727432E+001                                                     F               0         X-component position of node 10 (blade 1, node 9), m
         29    -5.26144943237E+001                                                     F               0         Y-component position of node 10 (blade 1, node 9), m
         30     1.70371719360E+002                                                     F               0         Z-component position of node 10 (blade 1, node 9), m
         31     1.54398975372E+001                                                     F               0         X-component position of node 11 (blade 1, node 10), m
         32    -5.60941123962E+001                                                     F               0         Y-component position of node 11 (blade 1, node 10), m
         33     1.72024398804E+002                                                     F               0         Z-component position of node 11 (blade 1, node 10), m
         34     1.57840213776E+001                                                     F               0         X-component position of node 12 (blade 1, node 11), m
         35    -5.95737380981E+001                                                     F               0         Y-component position of node 12 (blade 1, node 11), m
         36     1.73677093506E+002                                                     F               0         Z-component position of node 12 (blade 1, node 11), m
         37     1.61282100677E+001                                                     F               0         X-component position of node 13 (blade 1, node 12), m
         38    -6.30539779663E+001                                                     F               0         Y-component position of node 13 (blade 1, node 12), m
         39     1.75330062866E+002                                                     F               0         Z-component position of node 13 (blade 1, node 12), m
         40     1.64723339081E+001                                                     F               0         X-component position of node 14 (blade 1, node 13), m
         41    -6.65336074829E+001                                                     F               0         Y-component position of node 14 (blade 1, node 13), m
         42     1.76982757568E+002                                                     F               0         Z-component position of node 14 (blade 1, node 13), m
         43     1.68164577484E+001                                                     F               0         X-component position of node 15 (blade 1, node 14), m
         44    -7.00132217407E+001                                                     F               0         Y-component position of node 15 (blade 1, node 14), m
         45     1.78635437012E+002                                                     F               0         Z-component position of node 15 (blade 1, node 14), m
         46     1.71606445312E+001                                                     F               0         X-component position of node 16 (blade 1, node 15), m
         47    -7.34934768677E+001                                                     F               0         Y-component position of node 16 (blade 1, node 15), m
         48     1.80288421631E+002                                                     F               0         Z-component position of node 16 (blade 1, node 15), m
         49     1.75047702789E+001                                                     F               0         X-component position of node 17 (blade 1, node 16), m
         50    -7.69730987549E+001                                                     F               0         Y-component position of node 17 (blade 1, node 16), m
         51     1.81941101074E+002                                                     F               0         Z-component position of node 17 (blade 1, node 16), m
         52     1.78488941193E+001                                                     F               0         X-component position of node 18 (blade 1, node 17), m
         53    -8.04527282715E+001                                                     F               0         Y-component position of node 18 (blade 1, node 17), m
         54     1.83593795776E+002                                                     F               0         Z-component position of node 18 (blade 1, node 17), m
         55     1.81930198669E+001                                                     F               0         X-component position of node 19 (blade 1, node 18), m
         56    -8.39323425293E+001                                                     F               0         Y-component position of node 19 (blade 1, node 18), m
         57     1.85246475220E+002                                                     F               0         Z-component position of node 19 (blade 1, node 18), m
         58     1.85372047424E+001                                                     F               0         X-component position of node 20 (blade 1, node 19), m
         59    -8.74125823975E+001                                                     F               0         Y-component position of node 20 (blade 1, node 19), m
         60     1.86899459839E+002                                                     F               0         Z-component position of node 20 (blade 1, node 19), m
         61     1.88813285828E+001                                                     F               0         X-component position of node 21 (blade 1, node 20), m
         62    -9.08922119141E+001                                                     F               0         Y-component position of node 21 (blade 1, node 20), m
         63     1.88552154541E+002                                                     F               0         Z-component position of node 21 (blade 1, node 20), m
         64     1.92254543304E+001                                                     F               0         X-component position of node 22 (blade 1, node 21), m
         65    -9.43718338013E+001                                                     F               0         Y-component position of node 22 (blade 1, node 21), m
         66     1.90204833984E+002                                                     F               0         Z-component position of node 22 (blade 1, node 21), m
         67     1.95696411133E+001                                                     F               0         X-component position of node 23 (blade 1, node 22), m
         68    -9.78520812988E+001                                                     F               0         Y-component position of node 23 (blade 1, node 22), m
         69     1.91857818604E+002                                                     F               0         Z-component position of node 23 (blade 1, node 22), m
         70     1.99137649536E+001                                                     F               0         X-component position of node 24 (blade 1, node 23), m
         71    -1.01331710815E+002                                                     F               0         Y-component position of node 24 (blade 1, node 23), m
         72     1.93510513306E+002                                                     F               0         Z-component position of node 24 (blade 1, node 23), m
         73     2.02578907013E+001                                                     F               0         X-component position of node 25 (blade 1, node 24), m
         74    -1.04811332703E+002                                                     F               0         Y-component position of node 25 (blade 1, node 24), m
         75     1.95163192749E+002                                                     F               0         Z-component position of node 25 (blade 1, node 24), m
         76     2.06020145416E+001                                                     F               0         X-component position of node 26 (blade 1, node 25), m
         77    -1.08290946960E+002                                                     F               0         Y-component position of node 26 (blade 1, node 25), m
         78     1.96815872192E+002                                                     F               0         Z-component position of node 26 (blade 1, node 25), m
         79     2.09462032318E+001                                                     F               0         X-component position of node 27 (blade 1, node 26), m
         80    -1.11771202087E+002                                                     F               0         Y-component position of node 27 (blade 1, node 26), m
         81     1.98468856812E+002                                                     F               0         Z-component position of node 27 (blade 1, node 26), m
         82     2.12903270721E+001                                                     F               0         X-component position of node 28 (blade 1, node 27), m
         83    -1.15250808716E+002                                                     F               0         Y-component position of node 28 (blade 1, node 27), m
         84     2.00121551514E+002                                                     F               0         Z-component position of node 28 (blade 1, node 27), m
         85     2.15820693970E+001                                                     F               0         X-component position of node 29 (blade 1, node 28), m
         86    -1.18200790405E+002                                                     F               0         Y-component position of node 29 (blade 1, node 28), m
         87     2.01522674561E+002                                                     F               0         Z-component position of node 29 (blade 1, node 28), m
         88     9.67490482330E+000                                                     F               0         X-component position of node 30 (blade 2, node 1), m
         89    -8.82023525238E+000                                                     F               0         Y-component position of node 30 (blade 2, node 1), m
         90     1.44351074219E+002                                                     F               0         Z-component position of node 30 (blade 2, node 1), m
         91     9.40284061432E+000                                                     F               0         X-component position of node 31 (blade 2, node 2), m
         92    -8.72433948517E+000                                                     F               0         Y-component position of node 31 (blade 2, node 2), m
         93     1.43047714233E+002                                                     F               0         Z-component position of node 31 (blade 2, node 2), m
         94     5.70321178436E+000                                                     F               0         X-component position of node 32 (blade 2, node 3), m
         95    -7.42024183273E+000                                                     F               0         Y-component position of node 32 (blade 2, node 3), m
         96     1.25324234009E+002                                                     F               0         Z-component position of node 32 (blade 2, node 3), m
         97     4.91497850418E+000                                                     F               0         X-component position of node 33 (blade 2, node 4), m
         98    -7.14239263535E+000                                                     F               0         Y-component position of node 33 (blade 2, node 4), m
         99     1.21548118591E+002                                                     F               0         Z-component position of node 33 (blade 2, node 4), m
        100     4.12660551071E+000                                                     F               0         X-component position of node 34 (blade 2, node 5), m
        101    -6.86450529099E+000                                                     F               0         Y-component position of node 34 (blade 2, node 5), m
        102     1.17771316528E+002                                                     F               0         Z-component position of node 34 (blade 2, node 5), m
        103     3.33837389946E+000                                                     F               0         X-component position of node 35 (blade 2, node 6), m
        104    -6.58665561676E+000                                                     F               0         Y-component position of node 35 (blade 2, node 6), m
        105     1.13995201111E+002                                                     F               0         Z-component position of node 35 (blade 2, node 6), m
        106     2.55014061928E+000                                                     F               0         X-component position of node 36 (blade 2, node 7), m
        107    -6.30880832672E+000                                                     F               0         Y-component position of node 36 (blade 2, node 7), m
        108     1.10219085693E+002                                                     F               0         Z-component position of node 36 (blade 2, node 7), m
        109     1.76176846027E+000                                                     F               0         X-component position of node 37 (blade 2, node 8), m
        110    -6.03091955185E+000                                                     F               0         Y-component position of node 37 (blade 2, node 8), m
        111     1.06442291260E+002                                                     F               0         Z-component position of node 37 (blade 2, node 8), m
        112     9.73534882069E-001                                                     F               0         X-component position of node 38 (blade 2, node 9), m
        113    -5.75307035446E+000                                                     F               0         Y-component position of node 38 (blade 2, node 9), m
        114     1.02666175842E+002                                                     F               0         Z-component position of node 38 (blade 2, node 9), m
        115     1.85304656625E-001                                                     F               0         X-component position of node 39 (blade 2, node 10), m
        116    -5.47522783279E+000                                                     F               0         Y-component position of node 39 (blade 2, node 10), m
        117     9.88900604248E+001                                                     F               0         Z-component position of node 39 (blade 2, node 10), m
        118    -6.02928519249E-001                                                     F               0         X-component position of node 40 (blade 2, node 11), m
        119    -5.19737958908E+000                                                     F               0         Y-component position of node 40 (blade 2, node 11), m
        120     9.51139450073E+001                                                     F               0         Z-component position of node 40 (blade 2, node 11), m
        121    -1.39130163193E+000                                                     F               0         X-component position of node 41 (blade 2, node 12), m
        122    -4.91949319839E+000                                                     F               0         Y-component position of node 41 (blade 2, node 12), m
        123     9.13371429443E+001                                                     F               0         Z-component position of node 41 (blade 2, node 12), m
        124    -2.17953491211E+000                                                     F               0         X-component position of node 42 (blade 2, node 13), m
        125    -4.64164304733E+000                                                     F               0         Y-component position of node 42 (blade 2, node 13), m
        126     8.75610275269E+001                                                     F               0         Z-component position of node 42 (blade 2, node 13), m
        127    -2.96776533127E+000                                                     F               0         X-component position of node 43 (blade 2, node 14), m
        128    -4.36380052567E+000                                                     F               0         Y-component position of node 43 (blade 2, node 14), m
        129     8.37849121094E+001                                                     F               0         Z-component position of node 43 (blade 2, node 14), m
        130    -3.75614190102E+000                                                     F               0         X-component position of node 44 (blade 2, node 15), m
        131    -4.08590078354E+000                                                     F               0         Y-component position of node 44 (blade 2, node 15), m
        132     8.00081100464E+001                                                     F               0         Z-component position of node 44 (blade 2, node 15), m
        133    -4.54437398911E+000                                                     F               0         X-component position of node 45 (blade 2, node 16), m
        134    -3.80805349350E+000                                                     F               0         Y-component position of node 45 (blade 2, node 16), m
        135     7.62320022583E+001                                                     F               0         Z-component position of node 45 (blade 2, node 16), m
        136    -5.33260631561E+000                                                     F               0         X-component position of node 46 (blade 2, node 17), m
        137    -3.53021121025E+000                                                     F               0         Y-component position of node 46 (blade 2, node 17), m
        138     7.24558792114E+001                                                     F               0         Z-component position of node 46 (blade 2, node 17), m
        139    -6.12083816528E+000                                                     F               0         X-component position of node 47 (blade 2, node 18), m
        140    -3.25236463547E+000                                                     F               0         Y-component position of node 47 (blade 2, node 18), m
        141     6.86797714233E+001                                                     F               0         Z-component position of node 47 (blade 2, node 18), m
        142    -6.90921020508E+000                                                     F               0         X-component position of node 48 (blade 2, node 19), m
        143    -2.97447514534E+000                                                     F               0         Y-component position of node 48 (blade 2, node 19), m
        144     6.49029769897E+001                                                     F               0         Z-component position of node 48 (blade 2, node 19), m
        145    -7.69744348526E+000                                                     F               0         X-component position of node 49 (blade 2, node 20), m
        146    -2.69662690163E+000                                                     F               0         Y-component position of node 49 (blade 2, node 20), m
        147     6.11268539429E+001                                                     F               0         Z-component position of node 49 (blade 2, node 20), m
        148    -8.48567581177E+000                                                     F               0         X-component position of node 50 (blade 2, node 21), m
        149    -2.41878223419E+000                                                     F               0         Y-component position of node 50 (blade 2, node 21), m
        150     5.73507347107E+001                                                     F               0         Z-component position of node 50 (blade 2, node 21), m
        151    -9.27405071259E+000                                                     F               0         X-component position of node 51 (blade 2, node 22), m
        152    -2.14088845253E+000                                                     F               0         Y-component position of node 51 (blade 2, node 22), m
        153     5.35739364624E+001                                                     F               0         Z-component position of node 51 (blade 2, node 22), m
        154    -1.00622825623E+001                                                     F               0         X-component position of node 52 (blade 2, node 23), m
        155    -1.86303675175E+000                                                     F               0         Y-component position of node 52 (blade 2, node 23), m
        156     4.97978248596E+001                                                     F               0         Z-component position of node 52 (blade 2, node 23), m
        157    -1.08505153656E+001                                                     F               0         X-component position of node 53 (blade 2, node 24), m
        158    -1.58519470692E+000                                                     F               0         Y-component position of node 53 (blade 2, node 24), m
        159     4.60217056274E+001                                                     F               0         Z-component position of node 53 (blade 2, node 24), m
        160    -1.16387462616E+001                                                     F               0         X-component position of node 54 (blade 2, node 25), m
        161    -1.30734968185E+000                                                     F               0         Y-component position of node 54 (blade 2, node 25), m
        162     4.22455978394E+001                                                     F               0         Z-component position of node 54 (blade 2, node 25), m
        163    -1.24271249771E+001                                                     F               0         X-component position of node 55 (blade 2, node 26), m
        164    -1.02945089340E+000                                                     F               0         Y-component position of node 55 (blade 2, node 26), m
        165     3.84687881470E+001                                                     F               0         Z-component position of node 55 (blade 2, node 26), m
        166    -1.32153558731E+001                                                     F               0         X-component position of node 56 (blade 2, node 27), m
        167    -7.51611173153E-001                                                     F               0         Y-component position of node 56 (blade 2, node 27), m
        168     3.46926727295E+001                                                     F               0         Z-component position of node 56 (blade 2, node 27), m
        169    -1.38836030960E+001                                                     F               0         X-component position of node 57 (blade 2, node 28), m
        170    -5.16061782837E-001                                                     F               0         Y-component position of node 57 (blade 2, node 28), m
        171     3.14913501740E+001                                                     F               0         Z-component position of node 57 (blade 2, node 28), m
        172     1.14401693344E+001                                                     F               0         X-component position of node 58 (blade 3, node 1), m