
Linearized model: Predictions were generated on 12-Jan-2024 at 09:28:28 using OpenFAST, compiled as a 64-bit application using single precision at commit v3.5.1
 linked with  NWTC Subroutine Library; ElastoDyn; InflowWind; AeroDyn; ServoDyn; HydroDyn; MAP++ (<1.20.10>, <Oct-20-2023>)

Description from the FAST input file: CCT-9 Campign 4 model. Input files to be run with OpenFAST 3.5.0. GitHub branch from Lu Wang (https://github.com/luwang00/openfast/tree/dev) compiled on March 7, 2023.

Simulation information:
   Simulation time:                   506.1750 s
   Rotor Speed:                         0.8777 rad/s
   Azimuth:                             2.9895 rad
   Wind Speed:                         10.0000 m/s
   Number of continuous states:         0
   Number of discrete states:           0
   Number of constraint states:         0
   Number of inputs:                 1746
   Number of outputs:                   4
   Jacobians included in this file?    No

Order of inputs:
     Column   Operating Point                     Rotating Frame? Derivative Order Description
   ---------- ---------------                     --------------- ---------------- -----------
          1    1.099E+01                                 F               0         Tower X translation displacement, node 1, m
          2   -1.220E+00                                 F               0         Tower Y translation displacement, node 1, m
          3   -3.156E-01                                 F               0         Tower Z translation displacement, node 1, m
          4    1.246E+01                                 F               0         Tower X translation displacement, node 2, m
          5   -1.802E+00                                 F               0         Tower Y translation displacement, node 2, m
          6   -4.170E-01                                 F               0         Tower Z translation displacement, node 2, m
          7    1.395E+01                                 F               0         Tower X translation displacement, node 3, m
          8   -2.390E+00                                 F               0         Tower Y translation displacement, node 3, m
          9   -5.215E-01                                 F               0         Tower Z translation displacement, node 3, m
         10    1.546E+01                                 F               0         Tower X translation displacement, node 4, m
         11   -2.982E+00                                 F               0         Tower Y translation displacement, node 4, m
         12   -6.286E-01                                 F               0         Tower Z translation displacement, node 4, m
         13    1.699E+01                                 F               0         Tower X translation displacement, node 5, m
         14   -3.579E+00                                 F               0         Tower Y translation displacement, node 5, m
         15   -7.377E-01                                 F               0         Tower Z translation displacement, node 5, m
         16    1.853E+01                                 F               0         Tower X translation displacement, node 6, m
         17   -4.179E+00                                 F               0         Tower Y translation displacement, node 6, m
         18   -8.486E-01                                 F               0         Tower Z translation displacement, node 6, m
         19    2.008E+01                                 F               0         Tower X translation displacement, node 7, m
         20   -4.781E+00                                 F               0         Tower Y translation displacement, node 7, m
         21   -9.608E-01                                 F               0         Tower Z translation displacement, node 7, m
         22    2.163E+01                                 F               0         Tower X translation displacement, node 8, m
         23   -5.385E+00                                 F               0         Tower Y translation displacement, node 8, m
         24   -1.074E+00                                 F               0         Tower Z translation displacement, node 8, m
         25    2.319E+01                                 F               0         Tower X translation displacement, node 9, m
         26   -5.992E+00                                 F               0         Tower Y translation displacement, node 9, m
         27   -1.188E+00                                 F               0         Tower Z translation displacement, node 9, m
         28    2.476E+01                                 F               0         Tower X translation displacement, node 10, m
         29   -6.599E+00                                 F               0         Tower Y translation displacement, node 10, m
         30   -1.302E+00                                 F               0         Tower Z translation displacement, node 10, m
         31    2.632E+01                                 F               0         Tower X translation displacement, node 11, m
         32   -7.207E+00                                 F               0         Tower Y translation displacement, node 11, m
         33   -1.417E+00                                 F               0         Tower Z translation displacement, node 11, m
         34    9.930E-01,  1.002E-02, -1.177E-01         F               0         Tower X orientation angle, node 1, rad
         35   -4.417E-03,  9.988E-01,  4.780E-02         F               0         Tower Y orientation angle, node 1, rad
         36    1.180E-01, -4.694E-02,  9.919E-01         F               0         Tower Z orientation angle, node 1, rad
         37    9.928E-01,  1.011E-02, -1.195E-01         F               0         Tower X orientation angle, node 2, rad
         38   -4.363E-03,  9.988E-01,  4.825E-02         F               0         Tower Y orientation angle, node 2, rad
         39    1.199E-01, -4.738E-02,  9.917E-01         F               0         Tower Z orientation angle, node 2, rad
         40    9.926E-01,  1.019E-02, -1.212E-01         F               0         Tower X orientation angle, node 3, rad
         41   -4.314E-03,  9.988E-01,  4.865E-02         F               0         Tower Y orientation angle, node 3, rad
         42    1.215E-01, -4.777E-02,  9.914E-01         F               0         Tower Z orientation angle, node 3, rad
         43    9.924E-01,  1.026E-02, -1.225E-01         F               0         Tower X orientation angle, node 4, rad
         44   -4.270E-03,  9.988E-01,  4.900E-02         F               0         Tower Y orientation angle, node 4, rad
         45    1.229E-01, -4.811E-02,  9.913E-01         F               0         Tower Z orientation angle, node 4, rad
         46    9.923E-01,  1.031E-02, -1.237E-01         F               0         Tower X orientation angle, node 5, rad
         47   -4.232E-03,  9.988E-01,  4.931E-02         F               0         Tower Y orientation angle, node 5, rad
         48    1.240E-01, -4.840E-02,  9.911E-01         F               0         Tower Z orientation angle, node 5, rad
         49    9.922E-01,  1.035E-02, -1.246E-01         F               0         Tower X orientation angle, node 6, rad
         50   -4.200E-03,  9.988E-01,  4.956E-02         F               0         Tower Y orientation angle, node 6, rad
         51    1.249E-01, -4.865E-02,  9.910E-01         F               0         Tower Z orientation angle, node 6, rad
         52    9.921E-01,  1.039E-02, -1.253E-01         F               0         Tower X orientation angle, node 7, rad
         53   -4.175E-03,  9.988E-01,  4.977E-02         F               0         Tower Y orientation angle, node 7, rad
         54    1.256E-01, -4.885E-02,  9.909E-01         F               0         Tower Z orientation angle, node 7, rad
         55    9.920E-01,  1.041E-02, -1.258E-01         F               0         Tower X orientation angle, node 8, rad
         56   -4.155E-03,  9.987E-01,  4.992E-02         F               0         Tower Y orientation angle, node 8, rad
         57    1.261E-01, -4.900E-02,  9.908E-01         F               0         Tower Z orientation angle, node 8, rad
         58    9.920E-01,  1.043E-02, -1.261E-01         F               0         Tower X orientation angle, node 9, rad
         59   -4.140E-03,  9.987E-01,  5.004E-02         F               0         Tower Y orientation angle, node 9, rad
         60    1.265E-01, -4.912E-02,  9.908E-01         F               0         Tower Z orientation angle, node 9, rad
         61    9.919E-01,  1.044E-02, -1.263E-01         F               0         Tower X orientation angle, node 10, rad
         62   -4.131E-03,  9.987E-01,  5.012E-02         F               0         Tower Y orientation angle, node 10, rad
         63    1.267E-01, -4.919E-02,  9.907E-01         F               0         Tower Z orientation angle, node 10, rad
         64    9.919E-01,  1.045E-02, -1.264E-01         F               0         Tower X orientation angle, node 11, rad
         65   -4.125E-03,  9.987E-01,  5.016E-02         F               0         Tower Y orientation angle, node 11, rad
         66    1.268E-01, -4.923E-02,  9.907E-01         F               0         Tower Z orientation angle, node 11, rad
         67   -4.019E-03                                 F               0         Tower X translation velocity, node 1, m/s
         68    6.097E-03                                 F               0         Tower Y translation velocity, node 1, m/s
         69    5.097E-03                                 F               0         Tower Z translation velocity, node 1, m/s
         70   -3.937E-03                                 F               0         Tower X translation velocity, node 2, m/s
         71    9.425E-03                                 F               0         Tower Y translation velocity, node 2, m/s
         72    5.245E-03                                 F               0         Tower Z translation velocity, node 2, m/s
         73   -3.966E-03                                 F               0         Tower X translation velocity, node 3, m/s
         74    1.279E-02                                 F               0         Tower Y translation velocity, node 3, m/s
         75    5.410E-03                                 F               0         Tower Z translation velocity, node 3, m/s
         76   -4.085E-03                                 F               0         Tower X translation velocity, node 4, m/s
         77    1.618E-02                                 F               0         Tower Y translation velocity, node 4, m/s
         78    5.588E-03                                 F               0         Tower Z translation velocity, node 4, m/s
         79   -4.283E-03                                 F               0         Tower X translation velocity, node 5, m/s
         80    1.959E-02                                 F               0         Tower Y translation velocity, node 5, m/s
         81    5.779E-03                                 F               0         Tower Z translation velocity, node 5, m/s
         82   -4.551E-03                                 F               0         Tower X translation velocity, node 6, m/s
         83    2.302E-02                                 F               0         Tower Y translation velocity, node 6, m/s
         84    5.981E-03                                 F               0         Tower Z translation velocity, node 6, m/s
         85   -4.873E-03                                 F               0         Tower X translation velocity, node 7, m/s
         86    2.647E-02                                 F               0         Tower Y translation velocity, node 7, m/s
         87    6.191E-03                                 F               0         Tower Z translation velocity, node 7, m/s
         88   -5.245E-03                                 F               0         Tower X translation velocity, node 8, m/s
         89    2.993E-02                                 F               0         Tower Y translation velocity, node 8, m/s
         90    6.410E-03                                 F               0         Tower Z translation velocity, node 8, m/s
         91   -5.656E-03                                 F               0         Tower X translation velocity, node 9, m/s
         92    3.340E-02                                 F               0         Tower Y translation velocity, node 9, m/s
         93    6.634E-03                                 F               0         Tower Z translation velocity, node 9, m/s
         94   -6.095E-03                                 F               0         Tower X translation velocity, node 10, m/s
         95    3.688E-02                                 F               0         Tower Y translation velocity, node 10, m/s
         96    6.863E-03                                 F               0         Tower Z translation velocity, node 10, m/s
         97   -6.550E-03                                 F               0         Tower X translation velocity, node 11, m/s
         98    4.037E-02                                 F               0         Tower Y translation velocity, node 11, m/s
         99    7.094E-03                                 F               0         Tower Z translation velocity, node 11, m/s
        100    2.741E+01                                 F               0         Hub X translation displacement, node 1, m
        101   -7.706E+00                                 F               0         Hub Y translation displacement, node 1, m
        102   -1.248E-01                                 F               0         Hub Z translation displacement, node 1, m
        103    9.732E-01,  1.553E-02, -2.293E-01         F               0         Hub X orientation angle, node 1, rad
        104    3.890E-02, -9.945E-01,  9.773E-02         F               0         Hub Y orientation angle, node 1, rad
        105   -2.265E-01, -1.040E-01, -9.684E-01         F               0         Hub Z orientation angle, node 1, rad
        106    8.540E-01                                 F               0         Hub X rotation velocity, node 1, rad/s
        107    1.359E-02                                 F               0         Hub Y rotation velocity, node 1, rad/s
        108   -2.011E-01                                 F               0         Hub Z rotation velocity, node 1, rad/s
        109    9.717E-01,  4.503E-02, -2.321E-01         F               0         Blade root 1 X orientation angle, node 1, rad
        110    6.775E-02, -9.936E-01,  9.088E-02         F               0         Blade root 1 Y orientation angle, node 1, rad
        111   -2.265E-01, -1.040E-01, -9.684E-01         F               0         Blade root 1 Z orientation angle, node 1, rad
        112    9.792E-01,  3.450E-03, -2.028E-01         F               0         Blade root 2 X orientation angle, node 1, rad
        113   -1.866E-01,  4.074E-01, -8.940E-01         F               0         Blade root 2 Y orientation angle, node 1, rad
        114    7.956E-02,  9.132E-01,  3.996E-01         F               0         Blade root 2 Z orientation angle, node 1, rad
        115    9.676E-01, -1.896E-03, -2.526E-01         F               0         Blade root 3 X orientation angle, node 1, rad
        116    2.055E-01,  5.875E-01,  7.827E-01         F               0         Blade root 3 Y orientation angle, node 1, rad
        117    1.469E-01, -8.092E-01,  5.689E-01         F               0         Blade root 3 Z orientation angle, node 1, rad
        118    2.557E+01                                 F               0         Blade 1 X translation displacement, node 1, m
        119   -8.283E+00                                 F               0         Blade 1 Y translation displacement, node 1, m
        120   -1.100E+01                                 F               0         Blade 1 Z translation displacement, node 1, m
        121    2.513E+01                                 F               0         Blade 1 X translation displacement, node 2, m
        122   -8.422E+00                                 F               0         Blade 1 Y translation displacement, node 2, m
        123   -1.362E+01                                 F               0         Blade 1 Z translation displacement, node 2, m
        124    1.912E+01                                 F               0         Blade 1 X translation displacement, node 3, m
        125   -1.031E+01                                 F               0         Blade 1 Y translation displacement, node 3, m
        126   -4.925E+01                                 F               0         Blade 1 Z translation displacement, node 3, m
        127    1.784E+01                                 F               0         Blade 1 X translation displacement, node 4, m
        128   -1.071E+01                                 F               0         Blade 1 Y translation displacement, node 4, m
        129   -5.684E+01                                 F               0         Blade 1 Z translation displacement, node 4, m
        130    1.656E+01                                 F               0         Blade 1 X translation displacement, node 5, m
        131   -1.111E+01                                 F               0         Blade 1 Y translation displacement, node 5, m
        132   -6.444E+01                                 F               0         Blade 1 Z translation displacement, node 5, m
        133    1.528E+01                                 F               0         Blade 1 X translation displacement, node 6, m
        134   -1.152E+01                                 F               0         Blade 1 Y translation displacement, node 6, m
        135   -7.203E+01                                 F               0         Blade 1 Z translation displacement, node 6, m
        136    1.400E+01                                 F               0         Blade 1 X translation displacement, node 7, m
        137   -1.192E+01                                 F               0         Blade 1 Y translation displacement, node 7, m
        138   -7.962E+01                                 F               0         Blade 1 Z translation displacement, node 7, m
        139    1.272E+01                                 F               0         Blade 1 X translation displacement, node 8, m
        140   -1.232E+01                                 F               0         Blade 1 Y translation displacement, node 8, m
        141   -8.721E+01                                 F               0         Blade 1 Z translation displacement, node 8, m
        142    1.144E+01                                 F               0         Blade 1 X translation displacement, node 9, m
        143   -1.272E+01                                 F               0         Blade 1 Y translation displacement, node 9, m
        144   -9.481E+01                                 F               0         Blade 1 Z translation displacement, node 9, m
        145    1.016E+01                                 F               0         Blade 1 X translation displacement, node 10, m
        146   -1.313E+01                                 F               0         Blade 1 Y translation displacement, node 10, m
        147   -1.024E+02                                 F               0         Blade 1 Z translation displacement, node 10, m
        148    8.879E+00                                 F               0         Blade 1 X translation displacement, node 11, m
        149   -1.353E+01                                 F               0         Blade 1 Y translation displacement, node 11, m
        150   -1.100E+02                                 F               0         Blade 1 Z translation displacement, node 11, m
        151    7.599E+00                                 F               0         Blade 1 X translation displacement, node 12, m
        152   -1.393E+01                                 F               0         Blade 1 Y translation displacement, node 12, m
        153   -1.176E+02                                 F               0         Blade 1 Z translation displacement, node 12, m
        154    6.318E+00                                 F               0         Blade 1 X translation displacement, node 13, m
        155   -1.433E+01                                 F               0         Blade 1 Y translation displacement, node 13, m
        156   -1.252E+02                                 F               0         Blade 1 Z translation displacement, node 13, m
        157    5.038E+00                                 F               0         Blade 1 X translation displacement, node 14, m
        158   -1.474E+01                                 F               0         Blade 1 Y translation displacement, node 14, m
        159   -1.328E+02                                 F               0         Blade 1 Z translation displacement, node 14, m
        160    3.758E+00                                 F               0         Blade 1 X translation displacement, node 15, m
        161   -1.514E+01                                 F               0         Blade 1 Y translation displacement, node 15, m
        162   -1.404E+02                                 F               0         Blade 1 Z translation displacement, node 15, m
        163    2.477E+00                                 F               0         Blade 1 X translation displacement, node 16, m
        164   -1.554E+01                                 F               0         Blade 1 Y translation displacement, node 16, m
        165   -1.480E+02                                 F               0         Blade 1 Z translation displacement, node 16, m
        166    1.197E+00                                 F               0         Blade 1 X translation displacement, node 17, m
        167   -1.594E+01                                 F               0         Blade 1 Y translation displacement, node 17, m
        168   -1.555E+02                                 F               0         Blade 1 Z translation displacement, node 17, m
        169   -8.296E-02                                 F               0         Blade 1 X translation displacement, node 18, m
        170   -1.635E+01                                 F               0         Blade 1 Y translation displacement, node 18, m
        171   -1.631E+02                                 F               0         Blade 1 Z translation displacement, node 18, m
        172   -1.363E+00                                 F               0         Blade 1 X translation displacement, node 19, m
        173   -1.675E+01                                 F               0         Blade 1 Y translation displacement, node 19, m
        174   -1.707E+02                                 F               0         Blade 1 Z translation displacement, node 19, m
        175   -2.644E+00                                 F               0         Blade 1 X translation displacement, node 20, m
        176   -1.715E+01                                 F               0         Blade 1 Y translation displacement, node 20, m
        177   -1.783E+02                                 F               0         Blade 1 Z translation displacement, node 20, m
        178   -3.924E+00                                 F               0         Blade 1 X translation displacement, node 21, m
        179   -1.755E+01                                 F               0         Blade 1 Y translation displacement, node 21, m
        180   -1.859E+02                                 F               0         Blade 1 Z translation displacement, node 21, m
        181   -5.204E+00                                 F               0         Blade 1 X translation displacement, node 22, m
        182   -1.795E+01                                 F               0         Blade 1 Y translation displacement, node 22, m
        183   -1.935E+02                                 F               0         Blade 1 Z translation displacement, node 22, m
        184   -6.484E+00                                 F               0         Blade 1 X translation displacement, node 23, m
        185   -1.836E+01                                 F               0         Blade 1 Y translation displacement, node 23, m
        186   -2.011E+02                                 F               0         Blade 1 Z translation displacement, node 23, m
        187   -7.765E+00                                 F               0         Blade 1 X translation displacement, node 24, m
        188   -1.876E+01                                 F               0         Blade 1 Y translation displacement, node 24, m
        189   -2.087E+02                                 F               0         Blade 1 Z translation displacement, node 24, m
        190   -9.045E+00                                 F               0         Blade 1 X translation displacement, node 25, m
        191   -1.916E+01                                 F               0         Blade 1 Y translation displacement, node 25, m
        192   -2.163E+02                                 F               0         Blade 1 Z translation displacement, node 25, m
        193   -1.033E+01                                 F               0         Blade 1 X translation displacement, node 26, m
        194   -1.956E+01                                 F               0         Blade 1 Y translation displacement, node 26, m
        195   -2.239E+02                                 F               0         Blade 1 Z translation displacement, node 26, m
        196   -1.161E+01                                 F               0         Blade 1 X translation displacement, node 27, m
        197   -1.997E+01                                 F               0         Blade 1 Y translation displacement, node 27, m
        198   -2.315E+02                                 F               0         Blade 1 Z translation displacement, node 27, m
        199   -1.269E+01                                 F               0         Blade 1 X translation displacement, node 28, m
        200   -2.031E+01                                 F               0         Blade 1 Y translation displacement, node 28, m
        201   -2.379E+02                                 F               0         Blade 1 Z translation displacement, node 28, m
        202    8.339E-01,  4.931E-01, -2.480E-01         F               0         Blade 1 X orientation angle, node 1, rad
        203    5.034E-01, -8.637E-01, -2.495E-02         F               0         Blade 1 Y orientation angle, node 1, rad
        204   -2.265E-01, -1.040E-01, -9.684E-01         F               0         Blade 1 Z orientation angle, node 1, rad
        205    8.339E-01,  4.931E-01, -2.480E-01         F               0         Blade 1 X orientation angle, node 2, rad
        206    5.034E-01, -8.637E-01, -2.495E-02         F               0         Blade 1 Y orientation angle, node 2, rad
        207   -2.265E-01, -1.040E-01, -9.684E-01         F               0         Blade 1 Z orientation angle, node 2, rad
        208    9.294E-01,  2.744E-01, -2.468E-01         F               0         Blade 1 X orientation angle, node 3, rad
        209    2.914E-01, -9.560E-01,  3.454E-02         F               0         Blade 1 Y orientation angle, node 3, rad
        210   -2.265E-01, -1.040E-01, -9.684E-01         F               0         Blade 1 Z orientation angle, node 3, rad
        211    9.409E-01,  2.338E-01, -2.452E-01         F               0         Blade 1 X orientation angle, node 4, rad
        212    2.519E-01, -9.667E-01,  4.493E-02         F               0         Blade 1 Y orientation angle, node 4, rad
        213   -2.265E-01, -1.040E-01, -9.684E-01         F               0         Blade 1 Z orientation angle, node 4, rad
        214    9.487E-01,  2.016E-01, -2.435E-01         F               0         Blade 1 X orientation angle, node 5, rad
        215    2.206E-01, -9.739E-01,  5.303E-02         F               0         Blade 1 Y orientation angle, node 5, rad
        216   -2.265E-01, -1.040E-01, -9.684E-01         F               0         Blade 1 Z orientation angle, node 5, rad
        217    9.542E-01,  1.757E-01, -2.420E-01         F               0         Blade 1 X orientation angle, node 6, rad
        218    1.953E-01, -9.789E-01,  5.947E-02         F               0         Blade 1 Y orientation angle, node 6, rad
        219   -2.265E-01, -1.040E-01, -9.684E-01         F               0         Blade 1 Z orientation angle, node 6, rad
        220    9.583E-01,  1.543E-01, -2.407E-01         F               0         Blade 1 X orientation angle, node 7, rad
        221    1.745E-01, -9.825E-01,  6.474E-02         F               0         Blade 1 Y orientation angle, node 7, rad
        222   -2.265E-01, -1.040E-01, -9.684E-01         F               0         Blade 1 Z orientation angle, node 7, rad
        223    9.613E-01,  1.364E-01, -2.395E-01         F               0         Blade 1 X orientation angle, node 8, rad
        224    1.570E-01, -9.852E-01,  6.910E-02         F               0         Blade 1 Y orientation angle, node 8, rad
        225   -2.265E-01, -1.040E-01, -9.684E-01         F               0         Blade 1 Z orientation angle, node 8, rad
        226    9.636E-01,  1.213E-01, -2.384E-01         F               0         Blade 1 X orientation angle, node 9, rad
        227    1.423E-01, -9.872E-01,  7.277E-02         F               0         Blade 1 Y orientation angle, node 9, rad