
Linearized model: Predictions were generated on 13-Feb-2024 at 11:29:37 using OpenFAST, compiled as a 64-bit application using single precision at commit v3.5.1
 linked with  NWTC Subroutine Library; ElastoDyn; InflowWind; AeroDyn; ServoDyn; HydroDyn; MAP++ (<1.20.10>, <Oct-20-2023>)

Description from the FAST input file: CCT-9 Campign 4 model. Input files to be run with OpenFAST 3.5.0. GitHub branch from Lu Wang (https://github.com/luwang00/openfast/tree/dev) compiled on March 7, 2023.

Simulation information:
   Simulation time:                  1217.0000 s
   Rotor Speed:                         0.7918 rad/s
   Azimuth:                             4.8886 rad
   Wind Speed:                         16.0000 m/s
   Number of continuous states:         0
   Number of discrete states:           0
   Number of constraint states:         0
   Number of inputs:                   37
   Number of outputs:                   7
   Jacobians included in this file?    No

Order of inputs:
     Column   Operating Point                                                   Rotating Frame? Derivative Order Description
   ---------- ---------------                                                   --------------- ---------------- -----------
          1     8.64540672302E+000                                                     F               0         WAMIT X translation displacement, node 1, m
          2    -6.19253933430E-001                                                     F               0         WAMIT Y translation displacement, node 1, m
          3    -1.48732453585E-001                                                     F               0         WAMIT Z translation displacement, node 1, m
          4     9.93685185909E-001,   3.40402475558E-003,  -1.12152159214E-001         F               0         WAMIT X orientation angle, node 1, rad
          5     2.38165981136E-003,   9.98674631119E-001,   5.14134839177E-002         F               0         WAMIT Y orientation angle, node 1, rad
          6     1.12178526819E-001,  -5.13559244573E-002,   9.92360115051E-001         F               0         WAMIT Z orientation angle, node 1, rad
          7    -1.40078380355E-004                                                     F               0         WAMIT X translation velocity, node 1, m/s
          8    -5.24016097188E-004                                                     F               0         WAMIT Y translation velocity, node 1, m/s
          9    -7.45631614700E-003                                                     F               0         WAMIT Z translation velocity, node 1, m/s
         10     6.63255414111E-005                                                     F               0         WAMIT X rotation velocity, node 1, rad/s
         11    -9.08252786758E-006                                                     F               0         WAMIT Y rotation velocity, node 1, rad/s
         12    -1.05013225493E-006                                                     F               0         WAMIT Z rotation velocity, node 1, rad/s
         13    -2.39783897996E-004                                                     F               0         WAMIT X translation acceleration, node 1, m/s^2
         14     4.57843852928E-004                                                     F               0         WAMIT Y translation acceleration, node 1, m/s^2
         15    -6.35820091702E-004                                                     F               0         WAMIT Z translation acceleration, node 1, m/s^2
         16    -2.15658146772E-005                                                     F               0         WAMIT X rotation acceleration, node 1, rad/s^2
         17    -2.03953441087E-005                                                     F               0         WAMIT Y rotation acceleration, node 1, rad/s^2
         18     9.86483064480E-006                                                     F               0         WAMIT Z rotation acceleration, node 1, rad/s^2
         19     8.64540672302E+000                                                     F               0         Platform-RefPt X translation displacement, node 1, m
         20    -6.19253933430E-001                                                     F               0         Platform-RefPt Y translation displacement, node 1, m
         21    -1.48732453585E-001                                                     F               0         Platform-RefPt Z translation displacement, node 1, m
         22     9.93685185909E-001,   3.40402475558E-003,  -1.12152159214E-001         F               0         Platform-RefPt X orientation angle, node 1, rad
         23     2.38165981136E-003,   9.98674631119E-001,   5.14134839177E-002         F               0         Platform-RefPt Y orientation angle, node 1, rad
         24     1.12178526819E-001,  -5.13559244573E-002,   9.92360115051E-001         F               0         Platform-RefPt Z orientation angle, node 1, rad
         25    -1.40078380355E-004                                                     F               0         Platform-RefPt X translation velocity, node 1, m/s
         26    -5.24016097188E-004                                                     F               0         Platform-RefPt Y translation velocity, node 1, m/s
         27    -7.45631614700E-003                                                     F               0         Platform-RefPt Z translation velocity, node 1, m/s
         28     6.63255414111E-005                                                     F               0         Platform-RefPt X rotation velocity, node 1, rad/s
         29    -9.08252786758E-006                                                     F               0         Platform-RefPt Y rotation velocity, node 1, rad/s
         30    -1.05013225493E-006                                                     F               0         Platform-RefPt Z rotation velocity, node 1, rad/s
         31    -2.39783897996E-004                                                     F               0         Platform-RefPt X translation acceleration, node 1, m/s^2
         32     4.57843852928E-004                                                     F               0         Platform-RefPt Y translation acceleration, node 1, m/s^2
         33    -6.35820091702E-004                                                     F               0         Platform-RefPt Z translation acceleration, node 1, m/s^2
         34    -2.15658146772E-005                                                     F               0         Platform-RefPt X rotation acceleration, node 1, rad/s^2
         35    -2.03953441087E-005                                                     F               0         Platform-RefPt Y rotation acceleration, node 1, rad/s^2
         36     9.86483064480E-006                                                     F               0         Platform-RefPt Z rotation acceleration, node 1, rad/s^2
         37     0.00000000000E+000                                                     F               0         Extended input: wave elevation at platform ref point, m

Order of outputs:
        Row   Operating Point                                                   Rotating Frame? Derivative Order Description
   ---------- ---------------                                                   --------------- ---------------- -----------
          1     0.00000000000E+000                                                     F               0         Wave1Elev, (m)
          2    -5.90399023438E+004                                                     F               0         HydroFxi, (N)
          3    -2.09165576172E+003                                                     F               0         HydroFyi, (N)
          4     2.04004624000E+008                                                     F               0         HydroFzi, (N)
          5    -1.10329208000E+008                                                     F               0         HydroMxi, (N-m)
          6    -2.40992208000E+008                                                     F               0         HydroMyi, (N-m)
          7    -1.93265515625E+005                                                     F               0         HydroMzi, (N-m)


Linearized state matrices:

D: 7 x 37
     0.00000000000E+000   0.00000000000E+000   0.00000000000E+000   0.00000000000E+000   0.00000000000E+000   0.00000000000E+000   0.00000000000E+000   0.00000000000E+000   0.00000000000E+000   0.00000000000E+000   0.00000000000E+000   0.00000000000E+000   0.00000000000E+000   0.00000000000E+000   0.00000000000E+000   0.00000000000E+000   0.00000000000E+000   0.00000000000E+000   0.00000000000E+000   0.00000000000E+000   0.00000000000E+000   0.00000000000E+000   0.00000000000E+000   0.00000000000E+000   0.00000000000E+000   0.00000000000E+000   0.00000000000E+000   0.00000000000E+000   0.00000000000E+000   0.00000000000E+000   0.00000000000E+000   0.00000000000E+000   0.00000000000E+000   0.00000000000E+000   0.00000000000E+000   0.00000000000E+000   0.00000000000E+000
    -6.85995498612E+003   0.00000000000E+000   0.00000000000E+000   0.00000000000E+000   0.00000000000E+000   0.00000000000E+000  -2.82173224351E+005   0.00000000000E+000   0.00000000000E+000   0.00000000000E+000   0.00000000000E+000   0.00000000000E+000  -9.38083896931E+006   0.00000000000E+000   1.99512100047E+001   0.00000000000E+000   9.82680351759E+007   0.00000000000E+000   0.00000000000E+000   0.00000000000E+000   0.00000000000E+000   0.00000000000E+000   0.00000000000E+000   0.00000000000E+000   0.00000000000E+000   0.00000000000E+000   0.00000000000E+000   0.00000000000E+000   0.00000000000E+000   0.00000000000E+000   0.00000000000E+000   0.00000000000E+000   0.00000000000E+000   0.00000000000E+000   0.00000000000E+000   0.00000000000E+000   0.00000000000E+000
     0.00000000000E+000   0.00000000000E+000   0.00000000000E+000   0.00000000000E+000   0.00000000000E+000   0.00000000000E+000   0.00000000000E+000  -2.82175270629E+005   0.00000000000E+000   0.00000000000E+000   0.00000000000E+000   0.00000000000E+000   0.00000000000E+000  -9.38088807999E+006   0.00000000000E+000  -9.82662446828E+007   0.00000000000E+000   1.78568117338E+003   0.00000000000E+000   0.00000000000E+000   0.00000000000E+000   0.00000000000E+000   0.00000000000E+000   0.00000000000E+000   0.00000000000E+000   0.00000000000E+000   0.00000000000E+000   0.00000000000E+000   0.00000000000E+000   0.00000000000E+000   0.00000000000E+000   0.00000000000E+000   0.00000000000E+000   0.00000000000E+000   0.00000000000E+000   0.00000000000E+000   0.00000000000E+000
     0.00000000000E+000   0.00000000000E+000  -4.39475022593E+006   0.00000000000E+000   3.66692991724E+003   0.00000000000E+000   0.00000000000E+000   0.00000000000E+000  -8.09409335361E+005   0.00000000000E+000   0.00000000000E+000   0.00000000000E+000   0.00000000000E+000   0.00000000000E+000  -2.41346206440E+007   0.00000000000E+000   1.78762833466E+004   0.00000000000E+000   0.00000000000E+000   0.00000000000E+000   0.00000000000E+000   0.00000000000E+000   0.00000000000E+000   0.00000000000E+000   0.00000000000E+000   0.00000000000E+000   0.00000000000E+000   0.00000000000E+000   0.00000000000E+000   0.00000000000E+000   0.00000000000E+000   0.00000000000E+000   0.00000000000E+000   0.00000000000E+000   0.00000000000E+000   0.00000000000E+000   0.00000000000E+000
     0.00000000000E+000   2.04004613248E+008   2.06264817279E+003  -2.13421463291E+009   0.00000000000E+000   8.88084589332E+004   0.00000000000E+000   0.00000000000E+000   0.00000000000E+000  -2.78328277148E+009   0.00000000000E+000   0.00000000000E+000   0.00000000000E+000  -9.82009770033E+007   0.00000000000E+000  -1.13246530020E+010   0.00000000000E+000   5.29413006802E+004   0.00000000000E+000  -2.04004613248E+008  -2.06264817279E+003   0.00000000000E+000   0.00000000000E+000   0.00000000000E+000   0.00000000000E+000   0.00000000000E+000   0.00000000000E+000   0.00000000000E+000   0.00000000000E+000   0.00000000000E+000   0.00000000000E+000   0.00000000000E+000   0.00000000000E+000   0.00000000000E+000   0.00000000000E+000   0.00000000000E+000   0.00000000000E+000
    -2.04004678729E+008   0.00000000000E+000  -5.51349130632E+004   0.00000000000E+000  -2.13398109531E+009   0.00000000000E+000   0.00000000000E+000   0.00000000000E+000   0.00000000000E+000   0.00000000000E+000  -2.78327429170E+009   0.00000000000E+000   9.82035307582E+007   0.00000000000E+000   1.93168638404E+004  -2.29183119828E+002  -1.13240534590E+010   0.00000000000E+000   2.04004678729E+008   0.00000000000E+000   5.91292476200E+004   0.00000000000E+000   0.00000000000E+000   0.00000000000E+000   0.00000000000E+000   0.00000000000E+000   0.00000000000E+000   0.00000000000E+000   0.00000000000E+000   0.00000000000E+000   0.00000000000E+000   0.00000000000E+000   0.00000000000E+000   0.00000000000E+000   0.00000000000E+000   0.00000000000E+000   0.00000000000E+000
    -2.09161579501E+003   5.90399147983E+004   0.00000000000E+000   0.00000000000E+000   0.00000000000E+000   0.00000000000E+000   0.00000000000E+000   0.00000000000E+000   0.00000000000E+000   0.00000000000E+000   0.00000000000E+000  -2.51327411660E+009   0.00000000000E+000   1.55376442530E+003   0.00000000000E+000   4.40409831741E+004   0.00000000000E+000  -1.95913504720E+010   2.09161579501E+003  -5.90399147983E+004   0.00000000000E+000   0.00000000000E+000   0.00000000000E+000   0.00000000000E+000   0.00000000000E+000   0.00000000000E+000   0.00000000000E+000   0.00000000000E+000   0.00000000000E+000   0.00000000000E+000   0.00000000000E+000   0.00000000000E+000   0.00000000000E+000   0.00000000000E+000   0.00000000000E+000   0.00000000000E+000   0.00000000000E+000
