
Linearized model: Predictions were generated on 13-Feb-2024 at 12:12:09 using OpenFAST, compiled as a 64-bit application using single precision at commit v3.5.1
 linked with  NWTC Subroutine Library; ElastoDyn; InflowWind; AeroDyn; ServoDyn; HydroDyn; MAP++ (<1.20.10>, <Oct-20-2023>)

Description from the FAST input file: CCT-9 Campign 4 model. Input files to be run with OpenFAST 3.5.0. GitHub branch from Lu Wang (https://github.com/luwang00/openfast/tree/dev) compiled on March 7, 2023.

Simulation information:
   Simulation time:                   776.4000 s
   Rotor Speed:                         0.7922 rad/s
   Azimuth:                             4.7232 rad
   Wind Speed:                         24.0000 m/s
   Number of continuous states:         0
   Number of discrete states:           0
   Number of constraint states:         0
   Number of inputs:                 1746
   Number of outputs:                   4
   Jacobians included in this file?    No

Order of inputs:
     Column   Operating Point                                                   Rotating Frame? Derivative Order Description
   ---------- ---------------                                                   --------------- ---------------- -----------
          1     8.55190944672E+000                                                     F               0         Tower X translation displacement, node 1, m
          2    -1.82301461697E+000                                                     F               0         Tower Y translation displacement, node 1, m
          3    -2.23009958863E-001                                                     F               0         Tower Z translation displacement, node 1, m
          4     9.72428131104E+000                                                     F               0         Tower X translation displacement, node 2, m
          5    -2.49921035767E+000                                                     F               0         Tower Y translation displacement, node 2, m
          6    -2.97364830971E-001                                                     F               0         Tower Z translation displacement, node 2, m
          7     1.09155416489E+001                                                     F               0         Tower X translation displacement, node 3, m
          8    -3.18310093880E+000                                                     F               0         Tower Y translation displacement, node 3, m
          9    -3.73959571123E-001                                                     F               0         Tower Z translation displacement, node 3, m
         10     1.21209907532E+001                                                     F               0         Tower X translation displacement, node 4, m
         11    -3.87332510948E+000                                                     F               0         Tower Y translation displacement, node 4, m
         12    -4.52293574810E-001                                                     F               0         Tower Z translation displacement, node 4, m
         13     1.33380203247E+001                                                     F               0         Tower X translation displacement, node 5, m
         14    -4.56927585602E+000                                                     F               0         Tower Y translation displacement, node 5, m
         15    -5.32090485096E-001                                                     F               0         Tower Z translation displacement, node 5, m
         16     1.45641918182E+001                                                     F               0         Tower X translation displacement, node 6, m
         17    -5.27030897141E+000                                                     F               0         Tower Y translation displacement, node 6, m
         18    -6.13097131252E-001                                                     F               0         Tower Z translation displacement, node 6, m
         19     1.57968540192E+001                                                     F               0         Tower X translation displacement, node 7, m
         20    -5.97542476654E+000                                                     F               0         Tower Y translation displacement, node 7, m
         21    -6.94973587990E-001                                                     F               0         Tower Z translation displacement, node 7, m
         22     1.70347652435E+001                                                     F               0         Tower X translation displacement, node 8, m
         23    -6.68429946899E+000                                                     F               0         Tower Y translation displacement, node 8, m
         24    -7.77607083321E-001                                                     F               0         Tower Z translation displacement, node 8, m
         25     1.82762641907E+001                                                     F               0         Tower X translation displacement, node 9, m
         26    -7.39615631104E+000                                                     F               0         Tower Y translation displacement, node 9, m
         27    -8.60766172409E-001                                                     F               0         Tower Z translation displacement, node 9, m
         28     1.95199813843E+001                                                     F               0         Tower X translation displacement, node 10, m
         29    -8.11017036438E+000                                                     F               0         Tower Y translation displacement, node 10, m
         30    -9.44281458855E-001                                                     F               0         Tower Z translation displacement, node 10, m
         31     2.07648143768E+001                                                     F               0         Tower X translation displacement, node 11, m
         32    -8.82553386688E+000                                                     F               0         Tower Y translation displacement, node 11, m
         33    -1.02798557281E+000                                                     F               0         Tower Z translation displacement, node 11, m
         34     9.95476007462E-001,  -6.67557911947E-003,  -9.47785079479E-002         F               0         Tower X orientation angle, node 1, rad
         35     1.18005899712E-002,   9.98491883278E-001,   5.36165088415E-002         F               0         Tower Y orientation angle, node 1, rad
         36     9.42776501179E-002,  -5.44923879206E-002,   9.94053483009E-001         F               0         Tower Z orientation angle, node 1, rad
         37     9.95337605476E-001,  -6.59576430917E-003,  -9.62267220020E-002         F               0         Tower X orientation angle, node 2, rad
         38     1.18544092402E-002,   9.98460829258E-001,   5.41796199977E-002         F               0         Tower Y orientation angle, node 2, rad
         39     9.57212522626E-002,  -5.50677254796E-002,   9.93883788586E-001         F               0         Tower Z orientation angle, node 2, rad
         40     9.95215594769E-001,  -6.52567995712E-003,  -9.74849909544E-002         F               0         Tower X orientation angle, node 3, rad
         41     1.19050852954E-002,   9.98431742191E-001,   5.47025799751E-002         F               0         Tower Y orientation angle, node 3, rad
         42     9.69751402736E-002,  -5.56014291942E-002,   9.93732511997E-001         F               0         Tower Z orientation angle, node 3, rad
         43     9.95112657547E-001,  -6.46664435044E-003,  -9.85340476036E-002         F               0         Tower X orientation angle, node 4, rad
         44     1.19518702850E-002,   9.98404860497E-001,   5.51801994443E-002         F               0         Tower Y orientation angle, node 4, rad
         45     9.80200469494E-002,  -5.60881830752E-002,   9.93602633476E-001         F               0         Tower Z orientation angle, node 4, rad
         46     9.95028555393E-001,  -6.41837390140E-003,  -9.93832126260E-002         F               0         Tower X orientation angle, node 5, rad
         47     1.19943637401E-002,   9.98380482197E-001,   5.56105487049E-002         F               0         Tower Y orientation angle, node 5, rad
         48     9.88653302193E-002,  -5.65261207521E-002,   9.93494033813E-001         F               0         Tower Z orientation angle, node 5, rad
         49     9.94962215424E-001,  -6.38023484498E-003,  -1.00047446787E-001         F               0         Tower X orientation angle, node 6, rad
         50     1.20320934802E-002,   9.98358786106E-001,   5.59905767441E-002         F               0         Tower Y orientation angle, node 6, rad
         51     9.95260179043E-002,  -5.69122880697E-002,   9.93406057358E-001         F               0         Tower Z orientation angle, node 6, rad
         52     9.94913339615E-001,  -6.35201437399E-003,  -1.00533872843E-001         F               0         Tower X orientation angle, node 7, rad
         53     1.20640741661E-002,   9.98340368271E-001,   5.63117340207E-002         F               0         Tower Y orientation angle, node 7, rad
         54     1.00009329617E-001,  -5.72381466627E-002,   9.93338763714E-001         F               0         Tower Z orientation angle, node 7, rad
         55     9.94878470898E-001,  -6.33173948154E-003,  -1.00879818201E-001         F               0         Tower X orientation angle, node 8, rad
         56     1.20902629569E-002,   9.98325169086E-001,   5.65743185580E-002         F               0         Tower Y orientation angle, node 8, rad
         57     1.00352652371E-001,  -5.75042329729E-002,   9.93288755417E-001         F               0         Tower Z orientation angle, node 8, rad
         58     9.94855344296E-001,  -6.31821341813E-003,  -1.01108267903E-001         F               0         Tower X orientation angle, node 9, rad
         59     1.21102537960E-002,   9.98313546181E-001,   5.67747093737E-002         F               0         Tower Y orientation angle, node 9, rad
         60     1.00579045713E-001,  -5.77070713043E-002,   9.93254125118E-001         F               0         Tower Z orientation angle, node 9, rad
         61     9.94841873646E-001,  -6.31024083123E-003,  -1.01241528988E-001         F               0         Tower X orientation angle, node 10, rad
         62     1.21237449348E-002,   9.98305678368E-001,   5.69100454450E-002         F               0         Tower Y orientation angle, node 10, rad
         63     1.00710876286E-001,  -5.78439198434E-002,   9.93232786655E-001         F               0         Tower Z orientation angle, node 10, rad
         64     9.94835317135E-001,  -6.30635488778E-003,  -1.01305797696E-001         F               0         Tower X orientation angle, node 11, rad
         65     1.21312728152E-002,   9.98301267624E-001,   5.69856464863E-002         F               0         Tower Y orientation angle, node 11, rad
         66     1.00774332881E-001,  -5.79203031957E-002,   9.93221938610E-001         F               0         Tower Z orientation angle, node 11, rad
         67     4.33640694246E-003                                                     F               0         Tower X translation velocity, node 1, m/s
         68    -2.14221631177E-003                                                     F               0         Tower Y translation velocity, node 1, m/s
         69    -4.91275684908E-003                                                     F               0         Tower Z translation velocity, node 1, m/s
         70     5.19668217748E-003                                                     F               0         Tower X translation velocity, node 2, m/s
         71    -3.04177659564E-003                                                     F               0         Tower Y translation velocity, node 2, m/s
         72    -5.04427589476E-003                                                     F               0         Tower Z translation velocity, node 2, m/s
         73     5.44287264347E-003                                                     F               0         Tower X translation velocity, node 3, m/s
         74    -3.28615820035E-003                                                     F               0         Tower Y translation velocity, node 3, m/s
         75    -5.08176209405E-003                                                     F               0         Tower Z translation velocity, node 3, m/s
         76     5.15933893621E-003                                                     F               0         Tower X translation velocity, node 4, m/s
         77    -2.99583002925E-003                                                     F               0         Tower Y translation velocity, node 4, m/s
         78    -5.03758760169E-003                                                     F               0         Tower Z translation velocity, node 4, m/s
         79     4.37447009608E-003                                                     F               0         Tower X translation velocity, node 5, m/s
         80    -2.22629797645E-003                                                     F               0         Tower Y translation velocity, node 5, m/s
         81    -4.91612823680E-003                                                     F               0         Tower Z translation velocity, node 5, m/s
         82     3.12371039763E-003                                                     F               0         Tower X translation velocity, node 6, m/s
         83    -1.03511183988E-003                                                     F               0         Tower Y translation velocity, node 6, m/s
         84    -4.72312979400E-003                                                     F               0         Tower Z translation velocity, node 6, m/s
         85     1.48305227049E-003                                                     F               0         Tower X translation velocity, node 7, m/s
         86     4.91745653562E-004                                                     F               0         Tower Y translation velocity, node 7, m/s
         87    -4.47064405307E-003                                                     F               0         Tower Z translation velocity, node 7, m/s
         88    -5.31077734195E-004                                                     F               0         Tower X translation velocity, node 8, m/s
         89     2.32553365640E-003                                                     F               0         Tower Y translation velocity, node 8, m/s
         90    -4.16161213070E-003                                                     F               0         Tower Z translation velocity, node 8, m/s
         91    -2.85347993486E-003                                                     F               0         Tower X translation velocity, node 9, m/s
         92     4.40083956346E-003                                                     F               0         Tower Y translation velocity, node 9, m/s
         93    -3.80635820329E-003                                                     F               0         Tower Z translation velocity, node 9, m/s
         94    -5.40845748037E-003                                                     F               0         Tower X translation velocity, node 10, m/s
         95     6.64999196306E-003                                                     F               0         Tower Y translation velocity, node 10, m/s
         96    -3.41663276777E-003                                                     F               0         Tower Z translation velocity, node 10, m/s
         97    -8.11508670449E-003                                                     F               0         Tower X translation velocity, node 11, m/s
         98     9.00760944933E-003                                                     F               0         Tower Y translation velocity, node 11, m/s
         99    -3.00475815311E-003                                                     F               0         Tower Z translation velocity, node 11, m/s
        100     2.16116924286E+001                                                     F               0         Hub X translation displacement, node 1, m
        101    -9.21210670471E+000                                                     F               0         Hub Y translation displacement, node 1, m
        102     1.29645289853E-002                                                     F               0         Hub Z translation displacement, node 1, m
        103     9.78851735592E-001,  -2.17487526243E-004,  -2.04570800066E-001         F               0         Hub X orientation angle, node 1, rad
        104    -2.04068437219E-001,   6.90075382590E-002,  -9.76521372795E-001         F               0         Hub Y orientation angle, node 1, rad
        105     1.43293086439E-002,   9.97616112232E-001,   6.75037726760E-002         F               0         Hub Z orientation angle, node 1, rad
        106     7.75267124176E-001                                                     F               0         Hub X rotation velocity, node 1, rad/s
        107    -3.97302879719E-004                                                     F               0         Hub Y rotation velocity, node 1, rad/s
        108    -1.62032485008E-001                                                     F               0         Hub Z rotation velocity, node 1, rad/s
        109     9.95913565159E-001,  -2.02600453049E-002,   8.80098268390E-002         F               0         Blade root 1 X orientation angle, node 1, rad
        110     8.91676545143E-002,   6.59667998552E-002,  -9.93829727173E-001         F               0         Blade root 1 Y orientation angle, node 1, rad
        111     1.43293086439E-002,   9.97616112232E-001,   6.75037726760E-002         F               0         Blade root 1 Z orientation angle, node 1, rad
        112     9.03361499310E-001,  -2.41228520870E-001,  -3.54607909918E-001         F               0         Blade root 2 X orientation angle, node 1, rad
        113     3.93936663866E-001,   7.93604433537E-001,   4.63687330484E-001         F               0         Blade root 2 Y orientation angle, node 1, rad
        114     1.69563800097E-001,  -5.58570325375E-001,   8.11940431595E-001         F               0         Blade root 2 Z orientation angle, node 1, rad
        115     9.10573363304E-001,   2.60864257812E-001,  -3.20633769035E-001         F               0         Blade root 3 X orientation angle, node 1, rad
        116     3.70188474655E-001,  -8.59760820866E-001,   3.51812243462E-001         F               0         Blade root 3 Y orientation angle, node 1, rad
        117    -1.83893114328E-001,  -4.39045786858E-001,  -8.79444241524E-001         F               0         Blade root 3 Z orientation angle, node 1, rad
        118     2.11119880676E+001                                                     F               0         Blade 1 X translation displacement, node 1, m
        119    -3.68531370163E+000                                                     F               0         Blade 1 Y translation displacement, node 1, m
        120    -5.12272357941E+000                                                     F               0         Blade 1 Z translation displacement, node 1, m
        121     2.09915809631E+001                                                     F               0         Blade 1 X translation displacement, node 2, m
        122    -2.35358977318E+000                                                     F               0         Blade 1 Y translation displacement, node 2, m
        123    -6.36020326614E+000                                                     F               0         Blade 1 Z translation displacement, node 2, m
        124     1.93542499542E+001                                                     F               0         Blade 1 X translation displacement, node 3, m
        125     1.57555437088E+001                                                     F               0         Blade 1 Y translation displacement, node 3, m
        126    -2.31878108978E+001                                                     F               0         Blade 1 Z translation displacement, node 3, m
        127     1.90054054260E+001                                                     F               0         Blade 1 X translation displacement, node 4, m
        128     1.96138019562E+001                                                     F               0         Blade 1 Y translation displacement, node 4, m
        129    -2.67730388641E+001                                                     F               0         Blade 1 Z translation displacement, node 4, m
        130     1.86564960480E+001                                                     F               0         Blade 1 X translation displacement, node 5, m
        131     2.34727935791E+001                                                     F               0         Blade 1 Y translation displacement, node 5, m
        132    -3.03589363098E+001                                                     F               0         Blade 1 Z translation displacement, node 5, m
        133     1.83076515198E+001                                                     F               0         Blade 1 X translation displacement, node 6, m
        134     2.73310661316E+001                                                     F               0         Blade 1 Y translation displacement, node 6, m
        135    -3.39441795349E+001                                                     F               0         Blade 1 Z translation displacement, node 6, m
        136     1.79588050842E+001                                                     F               0         Blade 1 X translation displacement, node 7, m
        137     3.11893520355E+001                                                     F               0         Blade 1 Y translation displacement, node 7, m
        138    -3.75294227600E+001                                                     F               0         Blade 1 Z translation displacement, node 7, m
        139     1.76098976135E+001                                                     F               0         Blade 1 X translation displacement, node 8, m
        140     3.50483283997E+001                                                     F               0         Blade 1 Y translation displacement, node 8, m
        141    -4.11153182983E+001                                                     F               0         Blade 1 Z translation displacement, node 8, m
        142     1.72610511780E+001                                                     F               0         Blade 1 X translation displacement, node 9, m
        143     3.89066162109E+001                                                     F               0         Blade 1 Y translation displacement, node 9, m
        144    -4.47005577087E+001                                                     F               0         Blade 1 Z translation displacement, node 9, m
        145     1.69122066498E+001                                                     F               0         Blade 1 X translation displacement, node 10, m
        146     4.27648925781E+001                                                     F               0         Blade 1 Y translation displacement, node 10, m
        147    -4.82858047485E+001                                                     F               0         Blade 1 Z translation displacement, node 10, m
        148     1.65633602142E+001                                                     F               0         Blade 1 X translation displacement, node 11, m
        149     4.66231803894E+001                                                     F               0         Blade 1 Y translation displacement, node 11, m
        150    -5.18710441589E+001                                                     F               0         Blade 1 Z translation displacement, node 11, m
        151     1.62144546509E+001                                                     F               0         Blade 1 X translation displacement, node 12, m
        152     5.04821395874E+001                                                     F               0         Blade 1 Y translation displacement, node 12, m
        153    -5.54569282532E+001                                                     F               0         Blade 1 Z translation displacement, node 12, m
        154     1.58656082153E+001                                                     F               0         Blade 1 X translation displacement, node 13, m
        155     5.43404273987E+001                                                     F               0         Blade 1 Y translation displacement, node 13, m
        156    -5.90421714783E+001                                                     F               0         Blade 1 Z translation displacement, node 13, m
        157     1.55167636871E+001                                                     F               0         Blade 1 X translation displacement, node 14, m
        158     5.81987037659E+001                                                     F               0         Blade 1 Y translation displacement, node 14, m
        159    -6.26274147034E+001                                                     F               0         Blade 1 Z translation displacement, node 14, m
        160     1.51678543091E+001                                                     F               0         Blade 1 X translation displacement, node 15, m
        161     6.20576858521E+001                                                     F               0         Blade 1 Y translation displacement, node 15, m
        162    -6.62133102417E+001                                                     F               0         Blade 1 Z translation displacement, node 15, m
        163     1.48190097809E+001                                                     F               0         Blade 1 X translation displacement, node 16, m
        164     6.59159622192E+001                                                     F               0         Blade 1 Y translation displacement, node 16, m
        165    -6.97985534668E+001                                                     F               0         Blade 1 Z translation displacement, node 16, m
        166     1.44701642990E+001                                                     F               0         Blade 1 X translation displacement, node 17, m
        167     6.97742538452E+001                                                     F               0         Blade 1 Y translation displacement, node 17, m
        168    -7.33837966919E+001                                                     F               0         Blade 1 Z translation displacement, node 17, m
        169     1.41213188171E+001                                                     F               0         Blade 1 X translation displacement, node 18, m
        170     7.36325302124E+001                                                     F               0         Blade 1 Y translation displacement, node 18, m
        171    -7.69690399170E+001                                                     F               0         Blade 1 Z translation displacement, node 18, m
        172     1.37724113464E+001                                                     F               0         Blade 1 X translation displacement, node 19, m
        173     7.74914932251E+001                                                     F               0         Blade 1 Y translation displacement, node 19, m
        174    -8.05549240112E+001                                                     F               0         Blade 1 Z translation displacement, node 19, m
        175     1.34235649109E+001                                                     F               0         Blade 1 X translation displacement, node 20, m
        176     8.13497848511E+001                                                     F               0         Blade 1 Y translation displacement, node 20, m
        177    -8.41401596069E+001                                                     F               0         Blade 1 Z translation displacement, node 20, m
        178     1.30747213364E+001                                                     F               0         Blade 1 X translation displacement, node 21, m
        179     8.52080612183E+001                                                     F               0         Blade 1 Y translation displacement, node 21, m
        180    -8.77254104614E+001                                                     F               0         Blade 1 Z translation displacement, node 21, m
        181     1.27258119583E+001                                                     F               0         Blade 1 X translation displacement, node 22, m
        182     8.90670394897E+001                                                     F               0         Blade 1 Y translation displacement, node 22, m
        183    -9.13113021851E+001                                                     F               0         Blade 1 Z translation displacement, node 22, m