
Linearized model: Predictions were generated on 13-Feb-2024 at 11:29:37 using OpenFAST, compiled as a 64-bit application using single precision at commit v3.5.1
 linked with  NWTC Subroutine Library; ElastoDyn; InflowWind; AeroDyn; ServoDyn; HydroDyn; MAP++ (<1.20.10>, <Oct-20-2023>)

Description from the FAST input file: CCT-9 Campign 4 model. Input files to be run with OpenFAST 3.5.0. GitHub branch from Lu Wang (https://github.com/luwang00/openfast/tree/dev) compiled on March 7, 2023.

Simulation information:
   Simulation time:                  1218.3250 s
   Rotor Speed:                         0.7916 rad/s
   Azimuth:                             5.9375 rad
   Wind Speed:                         16.0000 m/s
   Number of continuous states:        14
   Number of discrete states:           0
   Number of constraint states:         0
   Number of inputs:                 1890
   Number of outputs:                  25
   Jacobians included in this file?    No

Order of continuous states:
   Row/Column Operating Point                                                   Rotating Frame? Derivative Order Description
   ---------- ---------------                                                   --------------- ---------------- -----------
          1     8.64500713348E+000                                                     F               2         Platform horizontal surge translation DOF (internal DOF index = DOF_Sg), m
          2    -6.19456946850E-001                                                     F               2         Platform horizontal sway translation DOF (internal DOF index = DOF_Sw), m
          3    -1.58677309752E-001                                                     F               2         Platform vertical heave translation DOF (internal DOF index = DOF_Hv), m
          4     5.18403835595E-002                                                     F               2         Platform roll tilt rotation DOF (internal DOF index = DOF_R), rad
          5     1.13001666963E-001                                                     F               2         Platform pitch tilt rotation DOF (internal DOF index = DOF_P), rad
          6     5.08404162247E-004                                                     F               2         Platform yaw rotation DOF (internal DOF index = DOF_Y), rad
          7     4.36666440964E+000                                                     F               2         Variable speed generator DOF (internal DOF index = DOF_GeAz), rad
          8    -1.70167040778E-004                                                     F               2         First time derivative of Platform horizontal surge translation DOF (internal DOF index = DOF_Sg), m/s
          9     1.27805004013E-004                                                     F               2         First time derivative of Platform horizontal sway translation DOF (internal DOF index = DOF_Sw), m/s
         10    -7.21598975360E-003                                                     F               2         First time derivative of Platform vertical heave translation DOF (internal DOF index = DOF_Hv), m/s
         11     2.77512826869E-005                                                     F               2         First time derivative of Platform roll tilt rotation DOF (internal DOF index = DOF_R), rad/s
         12    -1.37706629175E-005                                                     F               2         First time derivative of Platform pitch tilt rotation DOF (internal DOF index = DOF_P), rad/s
         13    -1.67080088431E-005                                                     F               2         First time derivative of Platform yaw rotation DOF (internal DOF index = DOF_Y), rad/s
         14     7.91608870029E-001                                                     F               2         First time derivative of Variable speed generator DOF (internal DOF index = DOF_GeAz), rad/s

Order of continuous state derivatives:
   Row/Column Operating Point                                                   Rotating Frame? Derivative Order Description
   ---------- ---------------                                                   --------------- ---------------- -----------
          1    -1.70167040778E-004                                                     F               2         First time derivative of Platform horizontal surge translation DOF (internal DOF index = DOF_Sg), m/s
          2     1.27805004013E-004                                                     F               2         First time derivative of Platform horizontal sway translation DOF (internal DOF index = DOF_Sw), m/s
          3    -7.21598975360E-003                                                     F               2         First time derivative of Platform vertical heave translation DOF (internal DOF index = DOF_Hv), m/s
          4     2.77512826869E-005                                                     F               2         First time derivative of Platform roll tilt rotation DOF (internal DOF index = DOF_R), rad/s
          5    -1.37706629175E-005                                                     F               2         First time derivative of Platform pitch tilt rotation DOF (internal DOF index = DOF_P), rad/s
          6    -1.67080088431E-005                                                     F               2         First time derivative of Platform yaw rotation DOF (internal DOF index = DOF_Y), rad/s
          7     7.91608870029E-001                                                     F               2         First time derivative of Variable speed generator DOF (internal DOF index = DOF_GeAz), rad/s
          8     2.34362130868E-004                                                     F               2         First time derivative of First time derivative of Platform horizontal surge translation DOF (internal DOF index = DOF_Sg), m/s/s
          9    -1.03919352114E-004                                                     F               2         First time derivative of First time derivative of Platform horizontal sway translation DOF (internal DOF index = DOF_Sw), m/s/s
         10     7.93910759967E-004                                                     F               2         First time derivative of First time derivative of Platform vertical heave translation DOF (internal DOF index = DOF_Hv), m/s/s
         11     4.91401215186E-006                                                     F               2         First time derivative of First time derivative of Platform roll tilt rotation DOF (internal DOF index = DOF_R), rad/s/s
         12     1.80831320904E-005                                                     F               2         First time derivative of First time derivative of Platform pitch tilt rotation DOF (internal DOF index = DOF_P), rad/s/s
         13    -1.60859362950E-005                                                     F               2         First time derivative of First time derivative of Platform yaw rotation DOF (internal DOF index = DOF_Y), rad/s/s
         14     2.12608410948E-005                                                     F               2         First time derivative of First time derivative of Variable speed generator DOF (internal DOF index = DOF_GeAz), rad/s/s

Order of inputs:
     Column   Operating Point                                                   Rotating Frame? Derivative Order Description
   ---------- ---------------                                                   --------------- ---------------- -----------
          1     1.58794815063E+002                                                     F               0         Blade 1 X force, node 1, N
          2     5.98530769348E+001                                                     F               0         Blade 1 Y force, node 1, N
          3    -5.31653137207E+001                                                     F               0         Blade 1 Z force, node 1, N
          4     6.83169189453E+002                                                     F               0         Blade 1 X force, node 2, N
          5     9.34547195435E+001                                                     F               0         Blade 1 Y force, node 2, N
          6    -1.77730148315E+002                                                     F               0         Blade 1 Z force, node 2, N
          7     8.90344848633E+002                                                     F               0         Blade 1 X force, node 3, N
          8    -9.27336425781E+001                                                     F               0         Blade 1 Y force, node 3, N
          9    -1.64935501099E+002                                                     F               0         Blade 1 Z force, node 3, N
         10     1.17007958984E+003                                                     F               0         Blade 1 X force, node 4, N
         11    -2.70158569336E+002                                                     F               0         Blade 1 Y force, node 4, N
         12    -1.70656143188E+002                                                     F               0         Blade 1 Z force, node 4, N
         13     1.44982519531E+003                                                     F               0         Blade 1 X force, node 5, N
         14    -4.47587310791E+002                                                     F               0         Blade 1 Y force, node 5, N
         15    -1.76378005981E+002                                                     F               0         Blade 1 Z force, node 5, N
         16     1.72956286621E+003                                                     F               0         Blade 1 X force, node 6, N
         17    -6.25014099121E+002                                                     F               0         Blade 1 Y force, node 6, N
         18    -1.82098709106E+002                                                     F               0         Blade 1 Z force, node 6, N
         19     2.00928723145E+003                                                     F               0         Blade 1 X force, node 7, N
         20    -8.02435668945E+002                                                     F               0         Blade 1 Y force, node 7, N
         21    -1.87818161011E+002                                                     F               0         Blade 1 Z force, node 7, N
         22     2.28902197266E+003                                                     F               0         Blade 1 X force, node 8, N
         23    -9.79860595703E+002                                                     F               0         Blade 1 Y force, node 8, N
         24    -1.93538818359E+002                                                     F               0         Blade 1 Z force, node 8, N
         25     2.56875683594E+003                                                     F               0         Blade 1 X force, node 9, N
         26    -1.15728552246E+003                                                     F               0         Blade 1 Y force, node 9, N
         27    -1.99259475708E+002                                                     F               0         Blade 1 Z force, node 9, N
         28     2.84849169922E+003                                                     F               0         Blade 1 X force, node 10, N
         29    -1.33471044922E+003                                                     F               0         Blade 1 Y force, node 10, N
         30    -2.04980133057E+002                                                     F               0         Blade 1 Z force, node 10, N
         31     3.12822631836E+003                                                     F               0         Blade 1 X force, node 11, N
         32    -1.51213562012E+003                                                     F               0         Blade 1 Y force, node 11, N
         33    -2.10700775146E+002                                                     F               0         Blade 1 Z force, node 11, N
         34     3.40798486328E+003                                                     F               0         Blade 1 X force, node 12, N
         35    -1.68957238770E+003                                                     F               0         Blade 1 Y force, node 12, N
         36    -2.16422897339E+002                                                     F               0         Blade 1 Z force, node 12, N
         37     3.68772265625E+003                                                     F               0         Blade 1 X force, node 13, N
         38    -1.86699926758E+003                                                     F               0         Blade 1 Y force, node 13, N
         39    -2.22143600464E+002                                                     F               0         Blade 1 Z force, node 13, N
         40     3.96743408203E+003                                                     F               0         Blade 1 X force, node 14, N
         41    -2.04441284180E+003                                                     F               0         Blade 1 Y force, node 14, N
         42    -2.27862808228E+002                                                     F               0         Blade 1 Z force, node 14, N
         43     4.24719726562E+003                                                     F               0         Blade 1 X force, node 15, N
         44    -2.22185229492E+003                                                     F               0         Blade 1 Y force, node 15, N
         45    -2.33584976196E+002                                                     F               0         Blade 1 Z force, node 15, N
         46     4.52690283203E+003                                                     F               0         Blade 1 X force, node 16, N
         47    -2.39926196289E+003                                                     F               0         Blade 1 Y force, node 16, N
         48    -2.39304077148E+002                                                     F               0         Blade 1 Z force, node 16, N
         49     5.56744824219E+003                                                     F               0         Blade 1 X force, node 17, N
         50    -2.97741479492E+003                                                     F               0         Blade 1 Y force, node 17, N
         51    -2.86021179199E+002                                                     F               0         Blade 1 Z force, node 17, N
         52     4.20406982422E+003                                                     F               0         Blade 1 X force, node 18, N
         53    -2.20271630859E+003                                                     F               0         Blade 1 Y force, node 18, N
         54    -2.30148315430E+002                                                     F               0         Blade 1 Z force, node 18, N
         55     5.09127636719E+003                                                     F               0         Blade 1 X force, node 19, N
         56    -2.59063208008E+003                                                     F               0         Blade 1 Y force, node 19, N
         57    -3.02634887695E+002                                                     F               0         Blade 1 Z force, node 19, N
         58     4.28749023438E+003                                                     F               0         Blade 1 X force, node 20, N
         59    -2.12025439453E+003                                                     F               0         Blade 1 Y force, node 20, N
         60    -2.73938446045E+002                                                     F               0         Blade 1 Z force, node 20, N
         61     6.24119287109E+003                                                     F               0         Blade 1 X force, node 21, N
         62    -2.98555249023E+003                                                     F               0         Blade 1 Y force, node 21, N
         63    -4.30117095947E+002                                                     F               0         Blade 1 Z force, node 21, N
         64     5.42801806641E+003                                                     F               0         Blade 1 X force, node 22, N
         65    -2.51251977539E+003                                                     F               0         Blade 1 Y force, node 22, N
         66    -4.00203033447E+002                                                     F               0         Blade 1 Z force, node 22, N
         67     5.50217041016E+003                                                     F               0         Blade 1 X force, node 23, N
         68    -2.47057714844E+003                                                     F               0         Blade 1 Y force, node 23, N
         69    -4.29379791260E+002                                                     F               0         Blade 1 Z force, node 23, N
         70     5.67327490234E+003                                                     F               0         Blade 1 X force, node 24, N
         71    -2.47149877930E+003                                                     F               0         Blade 1 Y force, node 24, N
         72    -4.66330535889E+002                                                     F               0         Blade 1 Z force, node 24, N
         73     5.74259765625E+003                                                     F               0         Blade 1 X force, node 25, N
         74    -2.42840966797E+003                                                     F               0         Blade 1 Y force, node 25, N
         75    -4.94812530518E+002                                                     F               0         Blade 1 Z force, node 25, N
         76     5.84360009766E+003                                                     F               0         Blade 1 X force, node 26, N
         77    -2.39944921875E+003                                                     F               0         Blade 1 Y force, node 26, N
         78    -5.25796752930E+002                                                     F               0         Blade 1 Z force, node 26, N
         79     6.91790332031E+003                                                     F               0         Blade 1 X force, node 27, N
         80    -2.75372753906E+003                                                     F               0         Blade 1 Y force, node 27, N
         81    -6.49458312988E+002                                                     F               0         Blade 1 Z force, node 27, N
         82     5.06567480469E+003                                                     F               0         Blade 1 X force, node 28, N
         83    -1.95657495117E+003                                                     F               0         Blade 1 Y force, node 28, N
         84    -4.94177947998E+002                                                     F               0         Blade 1 Z force, node 28, N
         85     6.13170019531E+003                                                     F               0         Blade 1 X force, node 29, N
         86    -2.30874975586E+003                                                     F               0         Blade 1 Y force, node 29, N
         87    -6.16692016602E+002                                                     F               0         Blade 1 Z force, node 29, N
         88     5.16396582031E+003                                                     F               0         Blade 1 X force, node 30, N
         89    -1.89575573730E+003                                                     F               0         Blade 1 Y force, node 30, N
         90    -5.34476440430E+002                                                     F               0         Blade 1 Z force, node 30, N
         91     7.36814697266E+003                                                     F               0         Blade 1 X force, node 31, N
         92    -2.62616479492E+003                                                     F               0         Blade 1 Y force, node 31, N
         93    -7.87100463867E+002                                                     F               0         Blade 1 Z force, node 31, N
         94     6.38241308594E+003                                                     F               0         Blade 1 X force, node 32, N
         95    -2.20879589844E+003                                                     F               0         Blade 1 Y force, node 32, N
         96    -7.02327758789E+002                                                     F               0         Blade 1 Z force, node 32, N
         97     6.45452392578E+003                                                     F               0         Blade 1 X force, node 33, N
         98    -2.17261206055E+003                                                     F               0         Blade 1 Y force, node 33, N
         99    -7.29269958496E+002                                                     F               0         Blade 1 Z force, node 33, N
        100     6.52402636719E+003                                                     F               0         Blade 1 X force, node 34, N
        101    -2.13626025391E+003                                                     F               0         Blade 1 Y force, node 34, N
        102    -7.55696594238E+002                                                     F               0         Blade 1 Z force, node 34, N
        103     6.57646435547E+003                                                     F               0         Blade 1 X force, node 35, N
        104    -2.09701318359E+003                                                     F               0         Blade 1 Y force, node 35, N
        105    -7.79309570312E+002                                                     F               0         Blade 1 Z force, node 35, N
        106     6.62288769531E+003                                                     F               0         Blade 1 X force, node 36, N
        107    -2.05648339844E+003                                                     F               0         Blade 1 Y force, node 36, N
        108    -8.02012634277E+002                                                     F               0         Blade 1 Z force, node 36, N
        109     7.79547119141E+003                                                     F               0         Blade 1 X force, node 37, N
        110    -2.35266064453E+003                                                     F               0         Blade 1 Y force, node 37, N
        111    -9.65124816895E+002                                                     F               0         Blade 1 Z force, node 37, N
        112     5.58162988281E+003                                                     F               0         Blade 1 X force, node 38, N
        113    -1.63997680664E+003                                                     F               0         Blade 1 Y force, node 38, N
        114    -7.04888183594E+002                                                     F               0         Blade 1 Z force, node 38, N
        115     6.74038427734E+003                                                     F               0         Blade 1 X force, node 39, N
        116    -1.93671459961E+003                                                     F               0         Blade 1 Y force, node 39, N
        117    -8.64816528320E+002                                                     F               0         Blade 1 Z force, node 39, N
        118     5.66464599609E+003                                                     F               0         Blade 1 X force, node 40, N
        119    -1.59105212402E+003                                                     F               0         Blade 1 Y force, node 40, N
        120    -7.38164428711E+002                                                     F               0         Blade 1 Z force, node 40, N
        121     7.90609179688E+003                                                     F               0         Blade 1 X force, node 41, N
        122    -2.16262500000E+003                                                     F               0         Blade 1 Y force, node 41, N
        123    -1.04827734375E+003                                                     F               0         Blade 1 Z force, node 41, N
        124     6.81147265625E+003                                                     F               0         Blade 1 X force, node 42, N
        125    -1.81525512695E+003                                                     F               0         Blade 1 Y force, node 42, N
        126    -9.18046752930E+002                                                     F               0         Blade 1 Z force, node 42, N
        127     6.82392382812E+003                                                     F               0         Blade 1 X force, node 43, N
        128    -1.77373767090E+003                                                     F               0         Blade 1 Y force, node 43, N
        129    -9.33663269043E+002                                                     F               0         Blade 1 Z force, node 43, N
        130     6.87022900391E+003                                                     F               0         Blade 1 X force, node 44, N
        131    -1.74139916992E+003                                                     F               0         Blade 1 Y force, node 44, N
        132    -9.53793945312E+002                                                     F               0         Blade 1 Z force, node 44, N
        133     6.79982373047E+003                                                     F               0         Blade 1 X force, node 45, N
        134    -1.68248352051E+003                                                     F               0         Blade 1 Y force, node 45, N
        135    -9.56787292480E+002                                                     F               0         Blade 1 Z force, node 45, N
        136     6.83512548828E+003                                                     F               0         Blade 1 X force, node 46, N
        137    -1.65085229492E+003                                                     F               0         Blade 1 Y force, node 46, N
        138    -9.74303405762E+002                                                     F               0         Blade 1 Z force, node 46, N
        139     8.02332470703E+003                                                     F               0         Blade 1 X force, node 47, N
        140    -1.88735034180E+003                                                     F               0         Blade 1 Y force, node 47, N
        141    -1.15936718750E+003                                                     F               0         Blade 1 Z force, node 47, N
        142     5.64041650391E+003                                                     F               0         Blade 1 X force, node 48, N
        143    -1.29371594238E+003                                                     F               0         Blade 1 Y force, node 48, N
        144    -8.25326904297E+002                                                     F               0         Blade 1 Z force, node 48, N
        145     6.82247656250E+003                                                     F               0         Blade 1 X force, node 49, N
        146    -1.53204614258E+003                                                     F               0         Blade 1 Y force, node 49, N
        147    -1.00848480225E+003                                                     F               0         Blade 1 Z force, node 49, N
        148     5.74249023438E+003                                                     F               0         Blade 1 X force, node 50, N
        149    -1.26152856445E+003                                                     F               0         Blade 1 Y force, node 50, N
        150    -8.57547241211E+002                                                     F               0         Blade 1 Z force, node 50, N
        151     7.87514160156E+003                                                     F               0         Blade 1 X force, node 51, N
        152    -1.68615246582E+003                                                     F               0         Blade 1 Y force, node 51, N
        153    -1.18966650391E+003                                                     F               0         Blade 1 Z force, node 51, N
        154     6.77999414062E+003                                                     F               0         Blade 1 X force, node 52, N
        155    -1.41504223633E+003                                                     F               0         Blade 1 Y force, node 52, N
        156    -1.03561352539E+003                                                     F               0         Blade 1 Z force, node 52, N
        157     6.75664062500E+003                                                     F               0         Blade 1 X force, node 53, N
        158    -1.37565734863E+003                                                     F               0         Blade 1 Y force, node 53, N