
Linearized model: Predictions were generated on 07-Feb-2024 at 11:38:03 using OpenFAST, compiled as a 64-bit application using single precision at commit v3.5.1
 linked with  NWTC Subroutine Library; ElastoDyn; InflowWind; AeroDyn; ServoDyn; HydroDyn; MAP++ (<1.20.10>, <Oct-20-2023>)

Description from the FAST input file: CCT-9 Campign 4 model. Input files to be run with OpenFAST 3.5.0. GitHub branch from Lu Wang (https://github.com/luwang00/openfast/tree/dev) compiled on March 7, 2023.

Simulation information:
   Simulation time:                  1007.4750 s
   Rotor Speed:                         1.0420 rad/s
   Azimuth:                             2.5420 rad
   Wind Speed:                         12.0000 m/s
   Number of continuous states:        22
   Number of discrete states:           0
   Number of constraint states:         0
   Number of inputs:                 1890
   Number of outputs:                  24
   Jacobians included in this file?    No

Order of continuous states:
   Row/Column Operating Point                     Rotating Frame? Derivative Order Description
   ---------- ---------------                     --------------- ---------------- -----------
          1    1.229E+01                                 F               2         Platform horizontal surge translation DOF (internal DOF index = DOF_Sg), m
          2   -2.189E-01                                 F               2         Platform horizontal sway translation DOF (internal DOF index = DOF_Sw), m
          3   -2.470E-01                                 F               2         Platform vertical heave translation DOF (internal DOF index = DOF_Hv), m
          4    5.355E-02                                 F               2         Platform roll tilt rotation DOF (internal DOF index = DOF_R), rad
          5    1.567E-01                                 F               2         Platform pitch tilt rotation DOF (internal DOF index = DOF_P), rad
          6    1.002E-02                                 F               2         Platform yaw rotation DOF (internal DOF index = DOF_Y), rad
          7    1.082E+00                                 F               2         1st tower fore-aft bending mode DOF (internal DOF index = DOF_TFA1), m
          8    2.338E-01                                 F               2         1st tower side-to-side bending mode DOF (internal DOF index = DOF_TSS1), m
          9    1.614E-03                                 F               2         2nd tower fore-aft bending mode DOF (internal DOF index = DOF_TFA2), m
         10    9.580E-05                                 F               2         2nd tower side-to-side bending mode DOF (internal DOF index = DOF_TSS2), m
         11    9.712E-01                                 F               2         Variable speed generator DOF (internal DOF index = DOF_GeAz), rad
         12    1.424E-04                                 F               2         First time derivative of Platform horizontal surge translation DOF (internal DOF index = DOF_Sg), m/s
         13   -1.835E-04                                 F               2         First time derivative of Platform horizontal sway translation DOF (internal DOF index = DOF_Sw), m/s
         14    5.551E-03                                 F               2         First time derivative of Platform vertical heave translation DOF (internal DOF index = DOF_Hv), m/s
         15    5.704E-05                                 F               2         First time derivative of Platform roll tilt rotation DOF (internal DOF index = DOF_R), rad/s
         16   -9.591E-05                                 F               2         First time derivative of Platform pitch tilt rotation DOF (internal DOF index = DOF_P), rad/s
         17    3.316E-04                                 F               2         First time derivative of Platform yaw rotation DOF (internal DOF index = DOF_Y), rad/s
         18   -8.073E-04                                 F               2         First time derivative of 1st tower fore-aft bending mode DOF (internal DOF index = DOF_TFA1), m/s
         19    1.212E-03                                 F               2         First time derivative of 1st tower side-to-side bending mode DOF (internal DOF index = DOF_TSS1), m/s
         20    1.126E-05                                 F               2         First time derivative of 2nd tower fore-aft bending mode DOF (internal DOF index = DOF_TFA2), m/s
         21    1.153E-06                                 F               2         First time derivative of 2nd tower side-to-side bending mode DOF (internal DOF index = DOF_TSS2), m/s
         22    1.042E+00                                 F               2         First time derivative of Variable speed generator DOF (internal DOF index = DOF_GeAz), rad/s

Order of continuous state derivatives:
   Row/Column Operating Point                     Rotating Frame? Derivative Order Description
   ---------- ---------------                     --------------- ---------------- -----------
          1    1.424E-04                                 F               2         First time derivative of Platform horizontal surge translation DOF (internal DOF index = DOF_Sg), m/s
          2   -1.835E-04                                 F               2         First time derivative of Platform horizontal sway translation DOF (internal DOF index = DOF_Sw), m/s
          3    5.551E-03                                 F               2         First time derivative of Platform vertical heave translation DOF (internal DOF index = DOF_Hv), m/s
          4    5.704E-05                                 F               2         First time derivative of Platform roll tilt rotation DOF (internal DOF index = DOF_R), rad/s
          5   -9.591E-05                                 F               2         First time derivative of Platform pitch tilt rotation DOF (internal DOF index = DOF_P), rad/s
          6    3.316E-04                                 F               2         First time derivative of Platform yaw rotation DOF (internal DOF index = DOF_Y), rad/s
          7   -8.073E-04                                 F               2         First time derivative of 1st tower fore-aft bending mode DOF (internal DOF index = DOF_TFA1), m/s
          8    1.212E-03                                 F               2         First time derivative of 1st tower side-to-side bending mode DOF (internal DOF index = DOF_TSS1), m/s
          9    1.126E-05                                 F               2         First time derivative of 2nd tower fore-aft bending mode DOF (internal DOF index = DOF_TFA2), m/s
         10    1.153E-06                                 F               2         First time derivative of 2nd tower side-to-side bending mode DOF (internal DOF index = DOF_TSS2), m/s
         11    1.042E+00                                 F               2         First time derivative of Variable speed generator DOF (internal DOF index = DOF_GeAz), rad/s
         12    7.105E-04                                 F               2         First time derivative of First time derivative of Platform horizontal surge translation DOF (internal DOF index = DOF_Sg), m/s/s
         13   -6.848E-04                                 F               2         First time derivative of First time derivative of Platform horizontal sway translation DOF (internal DOF index = DOF_Sw), m/s/s
         14    2.545E-04                                 F               2         First time derivative of First time derivative of Platform vertical heave translation DOF (internal DOF index = DOF_Hv), m/s/s
         15   -3.722E-04                                 F               2         First time derivative of First time derivative of Platform roll tilt rotation DOF (internal DOF index = DOF_R), rad/s/s
         16    2.174E-05                                 F               2         First time derivative of First time derivative of Platform pitch tilt rotation DOF (internal DOF index = DOF_P), rad/s/s
         17    1.384E-04                                 F               2         First time derivative of First time derivative of Platform yaw rotation DOF (internal DOF index = DOF_Y), rad/s/s
         18   -6.122E-03                                 F               2         First time derivative of First time derivative of 1st tower fore-aft bending mode DOF (internal DOF index = DOF_TFA1), m/s/s
         19   -3.100E-03                                 F               2         First time derivative of First time derivative of 1st tower side-to-side bending mode DOF (internal DOF index = DOF_TSS1), m/s/s
         20   -2.937E-05                                 F               2         First time derivative of First time derivative of 2nd tower fore-aft bending mode DOF (internal DOF index = DOF_TFA2), m/s/s
         21   -3.947E-07                                 F               2         First time derivative of First time derivative of 2nd tower side-to-side bending mode DOF (internal DOF index = DOF_TSS2), m/s/s
         22    6.859E-04                                 F               2         First time derivative of First time derivative of Variable speed generator DOF (internal DOF index = DOF_GeAz), rad/s/s

Order of inputs:
     Column   Operating Point                     Rotating Frame? Derivative Order Description
   ---------- ---------------                     --------------- ---------------- -----------
          1    1.315E+02                                 F               0         Blade 1 X force, node 1, N
          2   -1.407E+02                                 F               0         Blade 1 Y force, node 1, N
          3    5.359E+01                                 F               0         Blade 1 Z force, node 1, N
          4    4.897E+02                                 F               0         Blade 1 X force, node 2, N
          5   -2.401E+02                                 F               0         Blade 1 Y force, node 2, N
          6    2.092E+01                                 F               0         Blade 1 Z force, node 2, N
          7    5.969E+02                                 F               0         Blade 1 X force, node 3, N
          8   -1.578E+02                                 F               0         Blade 1 Y force, node 3, N
          9   -5.944E+01                                 F               0         Blade 1 Z force, node 3, N
         10    7.570E+02                                 F               0         Blade 1 X force, node 4, N
         11   -1.066E+02                                 F               0         Blade 1 Y force, node 4, N
         12   -1.343E+02                                 F               0         Blade 1 Z force, node 4, N
         13    9.172E+02                                 F               0         Blade 1 X force, node 5, N
         14   -5.545E+01                                 F               0         Blade 1 Y force, node 5, N
         15   -2.091E+02                                 F               0         Blade 1 Z force, node 5, N
         16    1.077E+03                                 F               0         Blade 1 X force, node 6, N
         17   -4.282E+00                                 F               0         Blade 1 Y force, node 6, N
         18   -2.839E+02                                 F               0         Blade 1 Z force, node 6, N
         19    1.238E+03                                 F               0         Blade 1 X force, node 7, N
         20    4.688E+01                                 F               0         Blade 1 Y force, node 7, N
         21   -3.587E+02                                 F               0         Blade 1 Z force, node 7, N
         22    1.398E+03                                 F               0         Blade 1 X force, node 8, N
         23    9.805E+01                                 F               0         Blade 1 Y force, node 8, N
         24   -4.335E+02                                 F               0         Blade 1 Z force, node 8, N
         25    1.558E+03                                 F               0         Blade 1 X force, node 9, N
         26    1.492E+02                                 F               0         Blade 1 Y force, node 9, N
         27   -5.083E+02                                 F               0         Blade 1 Z force, node 9, N
         28    1.718E+03                                 F               0         Blade 1 X force, node 10, N
         29    2.004E+02                                 F               0         Blade 1 Y force, node 10, N
         30   -5.831E+02                                 F               0         Blade 1 Z force, node 10, N
         31    1.878E+03                                 F               0         Blade 1 X force, node 11, N
         32    2.515E+02                                 F               0         Blade 1 Y force, node 11, N
         33   -6.579E+02                                 F               0         Blade 1 Z force, node 11, N
         34    2.038E+03                                 F               0         Blade 1 X force, node 12, N
         35    3.027E+02                                 F               0         Blade 1 Y force, node 12, N
         36   -7.328E+02                                 F               0         Blade 1 Z force, node 12, N
         37    2.199E+03                                 F               0         Blade 1 X force, node 13, N
         38    3.539E+02                                 F               0         Blade 1 Y force, node 13, N
         39   -8.076E+02                                 F               0         Blade 1 Z force, node 13, N
         40    2.359E+03                                 F               0         Blade 1 X force, node 14, N
         41    4.050E+02                                 F               0         Blade 1 Y force, node 14, N
         42   -8.824E+02                                 F               0         Blade 1 Z force, node 14, N
         43    2.519E+03                                 F               0         Blade 1 X force, node 15, N
         44    4.562E+02                                 F               0         Blade 1 Y force, node 15, N
         45   -9.572E+02                                 F               0         Blade 1 Z force, node 15, N
         46    2.679E+03                                 F               0         Blade 1 X force, node 16, N
         47    5.074E+02                                 F               0         Blade 1 Y force, node 16, N
         48   -1.032E+03                                 F               0         Blade 1 Z force, node 16, N
         49    3.296E+03                                 F               0         Blade 1 X force, node 17, N
         50    6.458E+02                                 F               0         Blade 1 Y force, node 17, N
         51   -1.283E+03                                 F               0         Blade 1 Z force, node 17, N
         52    2.547E+03                                 F               0         Blade 1 X force, node 18, N
         53    4.856E+02                                 F               0         Blade 1 Y force, node 18, N
         54   -9.831E+02                                 F               0         Blade 1 Z force, node 18, N
         55    3.170E+03                                 F               0         Blade 1 X force, node 19, N
         56    5.776E+02                                 F               0         Blade 1 Y force, node 19, N
         57   -1.207E+03                                 F               0         Blade 1 Z force, node 19, N
         58    2.737E+03                                 F               0         Blade 1 X force, node 20, N
         59    4.781E+02                                 F               0         Blade 1 Y force, node 20, N
         60   -1.029E+03                                 F               0         Blade 1 Z force, node 20, N
         61    4.100E+03                                 F               0         Blade 1 X force, node 21, N
         62    6.815E+02                                 F               0         Blade 1 Y force, node 21, N
         63   -1.520E+03                                 F               0         Blade 1 Z force, node 21, N
         64    3.667E+03                                 F               0         Blade 1 X force, node 22, N
         65    5.793E+02                                 F               0         Blade 1 Y force, node 22, N
         66   -1.340E+03                                 F               0         Blade 1 Z force, node 22, N
         67    3.809E+03                                 F               0         Blade 1 X force, node 23, N
         68    5.750E+02                                 F               0         Blade 1 Y force, node 23, N
         69   -1.375E+03                                 F               0         Blade 1 Z force, node 23, N
         70    4.020E+03                                 F               0         Blade 1 X force, node 24, N
         71    5.804E+02                                 F               0         Blade 1 Y force, node 24, N
         72   -1.435E+03                                 F               0         Blade 1 Z force, node 24, N
         73    4.161E+03                                 F               0         Blade 1 X force, node 25, N
         74    5.742E+02                                 F               0         Blade 1 Y force, node 25, N
         75   -1.468E+03                                 F               0         Blade 1 Z force, node 25, N
         76    4.324E+03                                 F               0         Blade 1 X force, node 26, N
         77    5.711E+02                                 F               0         Blade 1 Y force, node 26, N
         78   -1.510E+03                                 F               0         Blade 1 Z force, node 26, N
         79    5.228E+03                                 F               0         Blade 1 X force, node 27, N
         80    6.600E+02                                 F               0         Blade 1 Y force, node 27, N
         81   -1.806E+03                                 F               0         Blade 1 Z force, node 27, N
         82    3.908E+03                                 F               0         Blade 1 X force, node 28, N
         83    4.719E+02                                 F               0         Blade 1 Y force, node 28, N
         84   -1.337E+03                                 F               0         Blade 1 Z force, node 28, N
         85    4.813E+03                                 F               0         Blade 1 X force, node 29, N
         86    5.596E+02                                 F               0         Blade 1 Y force, node 29, N
         87   -1.632E+03                                 F               0         Blade 1 Z force, node 29, N
         88    4.120E+03                                 F               0         Blade 1 X force, node 30, N
         89    4.619E+02                                 F               0         Blade 1 Y force, node 30, N
         90   -1.387E+03                                 F               0         Blade 1 Z force, node 30, N
         91    5.993E+03                                 F               0         Blade 1 X force, node 31, N
         92    6.438E+02                                 F               0         Blade 1 Y force, node 31, N
         93   -1.999E+03                                 F               0         Blade 1 Z force, node 31, N
         94    5.299E+03                                 F               0         Blade 1 X force, node 32, N
         95    5.450E+02                                 F               0         Blade 1 Y force, node 32, N
         96   -1.752E+03                                 F               0         Blade 1 Z force, node 32, N
         97    5.459E+03                                 F               0         Blade 1 X force, node 33, N
         98    5.393E+02                                 F               0         Blade 1 Y force, node 33, N
         99   -1.792E+03                                 F               0         Blade 1 Z force, node 33, N
        100    5.620E+03                                 F               0         Blade 1 X force, node 34, N
        101    5.337E+02                                 F               0         Blade 1 Y force, node 34, N
        102   -1.831E+03                                 F               0         Blade 1 Z force, node 34, N
        103    5.781E+03                                 F               0         Blade 1 X force, node 35, N
        104    5.276E+02                                 F               0         Blade 1 Y force, node 35, N
        105   -1.870E+03                                 F               0         Blade 1 Z force, node 35, N
        106    5.941E+03                                 F               0         Blade 1 X force, node 36, N
        107    5.213E+02                                 F               0         Blade 1 Y force, node 36, N
        108   -1.908E+03                                 F               0         Blade 1 Z force, node 36, N
        109    7.140E+03                                 F               0         Blade 1 X force, node 37, N
        110    6.012E+02                                 F               0         Blade 1 Y force, node 37, N
        111   -2.278E+03                                 F               0         Blade 1 Z force, node 37, N
        112    5.223E+03                                 F               0         Blade 1 X force, node 38, N
        113    4.223E+02                                 F               0         Blade 1 Y force, node 38, N
        114   -1.655E+03                                 F               0         Blade 1 Z force, node 38, N
        115    6.423E+03                                 F               0         Blade 1 X force, node 39, N
        116    5.020E+02                                 F               0         Blade 1 Y force, node 39, N
        117   -2.025E+03                                 F               0         Blade 1 Z force, node 39, N
        118    5.495E+03                                 F               0         Blade 1 X force, node 40, N
        119    4.152E+02                                 F               0         Blade 1 Y force, node 40, N
        120   -1.723E+03                                 F               0         Blade 1 Z force, node 40, N
        121    7.834E+03                                 F               0         Blade 1 X force, node 41, N
        122    5.688E+02                                 F               0         Blade 1 Y force, node 41, N
        123   -2.442E+03                                 F               0         Blade 1 Z force, node 41, N
        124    6.903E+03                                 F               0         Blade 1 X force, node 42, N
        125    4.813E+02                                 F               0         Blade 1 Y force, node 42, N
        126   -2.139E+03                                 F               0         Blade 1 Z force, node 42, N
        127    7.061E+03                                 F               0         Blade 1 X force, node 43, N
        128    4.739E+02                                 F               0         Blade 1 Y force, node 43, N
        129   -2.177E+03                                 F               0         Blade 1 Z force, node 43, N
        130    7.258E+03                                 F               0         Blade 1 X force, node 44, N
        131    4.690E+02                                 F               0         Blade 1 Y force, node 44, N
        132   -2.226E+03                                 F               0         Blade 1 Z force, node 44, N
        133    7.340E+03                                 F               0         Blade 1 X force, node 45, N
        134    4.566E+02                                 F               0         Blade 1 Y force, node 45, N
        135   -2.240E+03                                 F               0         Blade 1 Z force, node 45, N
        136    7.536E+03                                 F               0         Blade 1 X force, node 46, N
        137    4.514E+02                                 F               0         Blade 1 Y force, node 46, N
        138   -2.289E+03                                 F               0         Blade 1 Z force, node 46, N
        139    9.046E+03                                 F               0         Blade 1 X force, node 47, N
        140    5.205E+02                                 F               0         Blade 1 Y force, node 47, N
        141   -2.734E+03                                 F               0         Blade 1 Z force, node 47, N
        142    6.500E+03                                 F               0         Blade 1 X force, node 48, N
        143    3.594E+02                                 F               0         Blade 1 Y force, node 48, N
        144   -1.955E+03                                 F               0         Blade 1 Z force, node 48, N
        145    8.009E+03                                 F               0         Blade 1 X force, node 49, N
        146    4.281E+02                                 F               0         Blade 1 Y force, node 49, N
        147   -2.400E+03                                 F               0         Blade 1 Z force, node 49, N
        148    6.865E+03                                 F               0         Blade 1 X force, node 50, N
        149    3.546E+02                                 F               0         Blade 1 Y force, node 50, N
        150   -2.049E+03                                 F               0         Blade 1 Z force, node 50, N
        151    9.623E+03                                 F               0         Blade 1 X force, node 51, N
        152    4.776E+02                                 F               0         Blade 1 Y force, node 51, N
        153   -2.860E+03                                 F               0         Blade 1 Z force, node 51, N
        154    8.482E+03                                 F               0         Blade 1 X force, node 52, N
        155    4.043E+02                                 F               0         Blade 1 Y force, node 52, N
        156   -2.511E+03                                 F               0         Blade 1 Z force, node 52, N
        157    8.641E+03                                 F               0         Blade 1 X force, node 53, N
        158    3.964E+02                                 F               0         Blade 1 Y force, node 53, N
        159   -2.548E+03                                 F               0         Blade 1 Z force, node 53, N
        160    8.897E+03                                 F               0         Blade 1 X force, node 54, N
        161    3.927E+02                                 F               0         Blade 1 Y force, node 54, N
        162   -2.614E+03                                 F               0         Blade 1 Z force, node 54, N
        163    8.861E+03                                 F               0         Blade 1 X force, node 55, N
        164    3.761E+02                                 F               0         Blade 1 Y force, node 55, N
        165   -2.594E+03                                 F               0         Blade 1 Z force, node 55, N
        166    9.115E+03                                 F               0         Blade 1 X force, node 56, N
        167    3.722E+02                                 F               0         Blade 1 Y force, node 56, N
        168   -2.659E+03                                 F               0         Blade 1 Z force, node 56, N
        169    1.095E+04                                 F               0         Blade 1 X force, node 57, N
        170    4.287E+02                                 F               0         Blade 1 Y force, node 57, N
        171   -3.183E+03                                 F               0         Blade 1 Z force, node 57, N
        172    7.751E+03                                 F               0         Blade 1 X force, node 58, N
        173    2.909E+02                                 F               0         Blade 1 Y force, node 58, N
        174   -2.245E+03                                 F               0         Blade 1 Z force, node 58, N
        175    9.588E+03                                 F               0         Blade 1 X force, node 59, N
        176    3.474E+02                                 F               0         Blade 1 Y force, node 59, N
        177   -2.769E+03                                 F               0         Blade 1 Z force, node 59, N
        178    8.253E+03                                 F               0         Blade 1 X force, node 60, N
        179    2.883E+02                                 F               0         Blade 1 Y force, node 60, N
        180   -2.377E+03                                 F               0         Blade 1 Z force, node 60, N
        181    1.140E+04                                 F               0         Blade 1 X force, node 61, N
        182    3.813E+02                                 F               0         Blade 1 Y force, node 61, N
        183   -3.271E+03                                 F               0         Blade 1 Z force, node 61, N
        184    1.006E+04                                 F               0         Blade 1 X force, node 62, N