
Linearized model: Predictions were generated on 12-Feb-2024 at 15:30:16 using OpenFAST, compiled as a 64-bit application using single precision at commit v3.5.1
 linked with  NWTC Subroutine Library; ElastoDyn; InflowWind; AeroDyn; ServoDyn; HydroDyn; MAP++ (<1.20.10>, <Oct-20-2023>)

Description from the FAST input file: CCT-9 Campign 4 model. Input files to be run with OpenFAST 3.5.0. GitHub branch from Lu Wang (https://github.com/luwang00/openfast/tree/dev) compiled on March 7, 2023.

Simulation information:
   Simulation time:                  1001.5000 s
   Rotor Speed:                         1.0392 rad/s
   Azimuth:                             2.6084 rad
   Wind Speed:                         12.0000 m/s
   Number of continuous states:         0
   Number of discrete states:           0
   Number of constraint states:         0
   Number of inputs:                 1746
   Number of outputs:                   4
   Jacobians included in this file?    No

Order of inputs:
     Column   Operating Point                     Rotating Frame? Derivative Order Description
   ---------- ---------------                     --------------- ---------------- -----------
          1    1.515E+01                                 F               0         Tower X translation displacement, node 1, m
          2   -1.049E+00                                 F               0         Tower Y translation displacement, node 1, m
          3   -5.016E-01                                 F               0         Tower Z translation displacement, node 1, m
          4    1.708E+01                                 F               0         Tower X translation displacement, node 2, m
          5   -1.611E+00                                 F               0         Tower Y translation displacement, node 2, m
          6   -6.666E-01                                 F               0         Tower Z translation displacement, node 2, m
          7    1.905E+01                                 F               0         Tower X translation displacement, node 3, m
          8   -2.178E+00                                 F               0         Tower Y translation displacement, node 3, m
          9   -8.374E-01                                 F               0         Tower Z translation displacement, node 3, m
         10    2.104E+01                                 F               0         Tower X translation displacement, node 4, m
         11   -2.749E+00                                 F               0         Tower Y translation displacement, node 4, m
         12   -1.013E+00                                 F               0         Tower Z translation displacement, node 4, m
         13    2.305E+01                                 F               0         Tower X translation displacement, node 5, m
         14   -3.324E+00                                 F               0         Tower Y translation displacement, node 5, m
         15   -1.192E+00                                 F               0         Tower Z translation displacement, node 5, m
         16    2.509E+01                                 F               0         Tower X translation displacement, node 6, m
         17   -3.902E+00                                 F               0         Tower Y translation displacement, node 6, m
         18   -1.374E+00                                 F               0         Tower Z translation displacement, node 6, m
         19    2.714E+01                                 F               0         Tower X translation displacement, node 7, m
         20   -4.482E+00                                 F               0         Tower Y translation displacement, node 7, m
         21   -1.559E+00                                 F               0         Tower Z translation displacement, node 7, m
         22    2.919E+01                                 F               0         Tower X translation displacement, node 8, m
         23   -5.064E+00                                 F               0         Tower Y translation displacement, node 8, m
         24   -1.745E+00                                 F               0         Tower Z translation displacement, node 8, m
         25    3.126E+01                                 F               0         Tower X translation displacement, node 9, m
         26   -5.648E+00                                 F               0         Tower Y translation displacement, node 9, m
         27   -1.933E+00                                 F               0         Tower Z translation displacement, node 9, m
         28    3.333E+01                                 F               0         Tower X translation displacement, node 10, m
         29   -6.233E+00                                 F               0         Tower Y translation displacement, node 10, m
         30   -2.122E+00                                 F               0         Tower Z translation displacement, node 10, m
         31    3.541E+01                                 F               0         Tower X translation displacement, node 11, m
         32   -6.819E+00                                 F               0         Tower Y translation displacement, node 11, m
         33   -2.312E+00                                 F               0         Tower Z translation displacement, node 11, m
         34    9.878E-01,  1.407E-02, -1.548E-01         F               0         Tower X orientation angle, node 1, rad
         35   -6.869E-03,  9.989E-01,  4.692E-02         F               0         Tower Y orientation angle, node 1, rad
         36    1.553E-01, -4.529E-02,  9.868E-01         F               0         Tower Z orientation angle, node 1, rad
         37    9.874E-01,  1.419E-02, -1.574E-01         F               0         Tower X orientation angle, node 2, rad
         38   -6.800E-03,  9.989E-01,  4.736E-02         F               0         Tower Y orientation angle, node 2, rad
         39    1.579E-01, -4.569E-02,  9.864E-01         F               0         Tower Z orientation angle, node 2, rad
         40    9.871E-01,  1.429E-02, -1.597E-01         F               0         Tower X orientation angle, node 3, rad
         41   -6.737E-03,  9.988E-01,  4.775E-02         F               0         Tower Y orientation angle, node 3, rad
         42    1.602E-01, -4.606E-02,  9.860E-01         F               0         Tower Z orientation angle, node 3, rad
         43    9.867E-01,  1.439E-02, -1.617E-01         F               0         Tower X orientation angle, node 4, rad
         44   -6.681E-03,  9.988E-01,  4.809E-02         F               0         Tower Y orientation angle, node 4, rad
         45    1.622E-01, -4.637E-02,  9.857E-01         F               0         Tower Z orientation angle, node 4, rad
         46    9.865E-01,  1.446E-02, -1.633E-01         F               0         Tower X orientation angle, node 5, rad
         47   -6.632E-03,  9.988E-01,  4.839E-02         F               0         Tower Y orientation angle, node 5, rad
         48    1.638E-01, -4.665E-02,  9.854E-01         F               0         Tower Z orientation angle, node 5, rad
         49    9.862E-01,  1.453E-02, -1.647E-01         F               0         Tower X orientation angle, node 6, rad
         50   -6.591E-03,  9.988E-01,  4.863E-02         F               0         Tower Y orientation angle, node 6, rad
         51    1.652E-01, -4.688E-02,  9.851E-01         F               0         Tower Z orientation angle, node 6, rad
         52    9.861E-01,  1.458E-02, -1.657E-01         F               0         Tower X orientation angle, node 7, rad
         53   -6.558E-03,  9.988E-01,  4.883E-02         F               0         Tower Y orientation angle, node 7, rad
         54    1.662E-01, -4.706E-02,  9.850E-01         F               0         Tower Z orientation angle, node 7, rad
         55    9.859E-01,  1.461E-02, -1.665E-01         F               0         Tower X orientation angle, node 8, rad
         56   -6.532E-03,  9.988E-01,  4.898E-02         F               0         Tower Y orientation angle, node 8, rad
         57    1.670E-01, -4.721E-02,  9.848E-01         F               0         Tower Z orientation angle, node 8, rad
         58    9.858E-01,  1.464E-02, -1.670E-01         F               0         Tower X orientation angle, node 9, rad
         59   -6.513E-03,  9.988E-01,  4.909E-02         F               0         Tower Y orientation angle, node 9, rad
         60    1.675E-01, -4.731E-02,  9.847E-01         F               0         Tower Z orientation angle, node 9, rad
         61    9.858E-01,  1.466E-02, -1.674E-01         F               0         Tower X orientation angle, node 10, rad
         62   -6.501E-03,  9.988E-01,  4.917E-02         F               0         Tower Y orientation angle, node 10, rad
         63    1.679E-01, -4.738E-02,  9.847E-01         F               0         Tower Z orientation angle, node 10, rad
         64    9.858E-01,  1.466E-02, -1.675E-01         F               0         Tower X orientation angle, node 11, rad
         65   -6.494E-03,  9.988E-01,  4.921E-02         F               0         Tower Y orientation angle, node 11, rad
         66    1.681E-01, -4.742E-02,  9.846E-01         F               0         Tower Z orientation angle, node 11, rad
         67   -2.127E-03                                 F               0         Tower X translation velocity, node 1, m/s
         68   -3.608E-02                                 F               0         Tower Y translation velocity, node 1, m/s
         69   -3.430E-03                                 F               0         Tower Z translation velocity, node 1, m/s
         70   -2.767E-03                                 F               0         Tower X translation velocity, node 2, m/s
         71   -6.075E-02                                 F               0         Tower Y translation velocity, node 2, m/s
         72   -4.466E-03                                 F               0         Tower Z translation velocity, node 2, m/s
         73   -3.427E-03                                 F               0         Tower X translation velocity, node 3, m/s
         74   -8.582E-02                                 F               0         Tower Y translation velocity, node 3, m/s
         75   -5.526E-03                                 F               0         Tower Z translation velocity, node 3, m/s
         76   -4.107E-03                                 F               0         Tower X translation velocity, node 4, m/s
         77   -1.112E-01                                 F               0         Tower Y translation velocity, node 4, m/s
         78   -6.605E-03                                 F               0         Tower Z translation velocity, node 4, m/s
         79   -4.809E-03                                 F               0         Tower X translation velocity, node 5, m/s
         80   -1.369E-01                                 F               0         Tower Y translation velocity, node 5, m/s
         81   -7.701E-03                                 F               0         Tower Z translation velocity, node 5, m/s
         82   -5.532E-03                                 F               0         Tower X translation velocity, node 6, m/s
         83   -1.628E-01                                 F               0         Tower Y translation velocity, node 6, m/s
         84   -8.810E-03                                 F               0         Tower Z translation velocity, node 6, m/s
         85   -6.275E-03                                 F               0         Tower X translation velocity, node 7, m/s
         86   -1.889E-01                                 F               0         Tower Y translation velocity, node 7, m/s
         87   -9.928E-03                                 F               0         Tower Z translation velocity, node 7, m/s
         88   -7.039E-03                                 F               0         Tower X translation velocity, node 8, m/s
         89   -2.151E-01                                 F               0         Tower Y translation velocity, node 8, m/s
         90   -1.105E-02                                 F               0         Tower Z translation velocity, node 8, m/s
         91   -7.820E-03                                 F               0         Tower X translation velocity, node 9, m/s
         92   -2.414E-01                                 F               0         Tower Y translation velocity, node 9, m/s
         93   -1.219E-02                                 F               0         Tower Z translation velocity, node 9, m/s
         94   -8.616E-03                                 F               0         Tower X translation velocity, node 10, m/s
         95   -2.679E-01                                 F               0         Tower Y translation velocity, node 10, m/s
         96   -1.332E-02                                 F               0         Tower Z translation velocity, node 10, m/s
         97   -9.421E-03                                 F               0         Tower X translation velocity, node 11, m/s
         98   -2.943E-01                                 F               0         Tower Y translation velocity, node 11, m/s
         99   -1.446E-02                                 F               0         Tower Z translation velocity, node 11, m/s
        100    3.688E+01                                 F               0         Hub X translation displacement, node 1, m
        101   -7.350E+00                                 F               0         Hub Y translation displacement, node 1, m
        102   -6.233E-01                                 F               0         Hub Z translation displacement, node 1, m
        103    9.628E-01,  1.954E-02, -2.695E-01         F               0         Hub X orientation angle, node 1, rad
        104    1.429E-01, -8.833E-01,  4.465E-01         F               0         Hub Y orientation angle, node 1, rad
        105   -2.294E-01, -4.684E-01, -8.532E-01         F               0         Hub Z orientation angle, node 1, rad
        106    1.003E+00                                 F               0         Hub X rotation velocity, node 1, rad/s
        107    2.026E-02                                 F               0         Hub Y rotation velocity, node 1, rad/s
        108   -2.806E-01                                 F               0         Hub Z rotation velocity, node 1, rad/s
        109    9.581E-01,  4.574E-02, -2.827E-01         F               0         Blade root 1 X orientation angle, node 1, rad
        110    1.714E-01, -8.824E-01,  4.383E-01         F               0         Blade root 1 Y orientation angle, node 1, rad
        111   -2.294E-01, -4.684E-01, -8.532E-01         F               0         Blade root 1 Z orientation angle, node 1, rad
        112    9.704E-01,  1.846E-02, -2.409E-01         F               0         Blade root 2 X orientation angle, node 1, rad
        113   -2.414E-01,  3.661E-02, -9.697E-01         F               0         Blade root 2 Y orientation angle, node 1, rad
        114   -9.084E-03,  9.992E-01,  3.999E-02         F               0         Blade root 2 Z orientation angle, node 1, rad
        115    9.586E-01, -5.604E-03, -2.847E-01         F               0         Blade root 3 X orientation angle, node 1, rad
        116    1.557E-01,  8.475E-01,  5.075E-01         F               0         Blade root 3 Y orientation angle, node 1, rad
        117    2.385E-01, -5.308E-01,  8.133E-01         F               0         Blade root 3 Z orientation angle, node 1, rad
        118    3.503E+01                                 F               0         Blade 1 X translation displacement, node 1, m
        119   -9.944E+00                                 F               0         Blade 1 Y translation displacement, node 1, m
        120   -1.086E+01                                 F               0         Blade 1 Z translation displacement, node 1, m
        121    3.459E+01                                 F               0         Blade 1 X translation displacement, node 2, m
        122   -1.057E+01                                 F               0         Blade 1 Y translation displacement, node 2, m
        123   -1.333E+01                                 F               0         Blade 1 Z translation displacement, node 2, m
        124    2.853E+01                                 F               0         Blade 1 X translation displacement, node 3, m
        125   -1.907E+01                                 F               0         Blade 1 Y translation displacement, node 3, m
        126   -4.687E+01                                 F               0         Blade 1 Z translation displacement, node 3, m
        127    2.723E+01                                 F               0         Blade 1 X translation displacement, node 4, m
        128   -2.088E+01                                 F               0         Blade 1 Y translation displacement, node 4, m
        129   -5.401E+01                                 F               0         Blade 1 Z translation displacement, node 4, m
        130    2.594E+01                                 F               0         Blade 1 X translation displacement, node 5, m
        131   -2.269E+01                                 F               0         Blade 1 Y translation displacement, node 5, m
        132   -6.116E+01                                 F               0         Blade 1 Z translation displacement, node 5, m
        133    2.465E+01                                 F               0         Blade 1 X translation displacement, node 6, m
        134   -2.451E+01                                 F               0         Blade 1 Y translation displacement, node 6, m
        135   -6.831E+01                                 F               0         Blade 1 Z translation displacement, node 6, m
        136    2.336E+01                                 F               0         Blade 1 X translation displacement, node 7, m
        137   -2.632E+01                                 F               0         Blade 1 Y translation displacement, node 7, m
        138   -7.545E+01                                 F               0         Blade 1 Z translation displacement, node 7, m
        139    2.207E+01                                 F               0         Blade 1 X translation displacement, node 8, m
        140   -2.813E+01                                 F               0         Blade 1 Y translation displacement, node 8, m
        141   -8.260E+01                                 F               0         Blade 1 Z translation displacement, node 8, m
        142    2.078E+01                                 F               0         Blade 1 X translation displacement, node 9, m
        143   -2.994E+01                                 F               0         Blade 1 Y translation displacement, node 9, m
        144   -8.975E+01                                 F               0         Blade 1 Z translation displacement, node 9, m
        145    1.949E+01                                 F               0         Blade 1 X translation displacement, node 10, m
        146   -3.175E+01                                 F               0         Blade 1 Y translation displacement, node 10, m
        147   -9.689E+01                                 F               0         Blade 1 Z translation displacement, node 10, m
        148    1.819E+01                                 F               0         Blade 1 X translation displacement, node 11, m
        149   -3.356E+01                                 F               0         Blade 1 Y translation displacement, node 11, m
        150   -1.040E+02                                 F               0         Blade 1 Z translation displacement, node 11, m
        151    1.690E+01                                 F               0         Blade 1 X translation displacement, node 12, m
        152   -3.537E+01                                 F               0         Blade 1 Y translation displacement, node 12, m
        153   -1.112E+02                                 F               0         Blade 1 Z translation displacement, node 12, m
        154    1.561E+01                                 F               0         Blade 1 X translation displacement, node 13, m
        155   -3.719E+01                                 F               0         Blade 1 Y translation displacement, node 13, m
        156   -1.183E+02                                 F               0         Blade 1 Z translation displacement, node 13, m
        157    1.432E+01                                 F               0         Blade 1 X translation displacement, node 14, m
        158   -3.900E+01                                 F               0         Blade 1 Y translation displacement, node 14, m
        159   -1.255E+02                                 F               0         Blade 1 Z translation displacement, node 14, m
        160    1.303E+01                                 F               0         Blade 1 X translation displacement, node 15, m
        161   -4.081E+01                                 F               0         Blade 1 Y translation displacement, node 15, m
        162   -1.326E+02                                 F               0         Blade 1 Z translation displacement, node 15, m
        163    1.174E+01                                 F               0         Blade 1 X translation displacement, node 16, m
        164   -4.262E+01                                 F               0         Blade 1 Y translation displacement, node 16, m
        165   -1.398E+02                                 F               0         Blade 1 Z translation displacement, node 16, m
        166    1.045E+01                                 F               0         Blade 1 X translation displacement, node 17, m
        167   -4.443E+01                                 F               0         Blade 1 Y translation displacement, node 17, m
        168   -1.469E+02                                 F               0         Blade 1 Z translation displacement, node 17, m
        169    9.154E+00                                 F               0         Blade 1 X translation displacement, node 18, m
        170   -4.624E+01                                 F               0         Blade 1 Y translation displacement, node 18, m
        171   -1.541E+02                                 F               0         Blade 1 Z translation displacement, node 18, m
        172    7.863E+00                                 F               0         Blade 1 X translation displacement, node 19, m
        173   -4.806E+01                                 F               0         Blade 1 Y translation displacement, node 19, m
        174   -1.612E+02                                 F               0         Blade 1 Z translation displacement, node 19, m
        175    6.572E+00                                 F               0         Blade 1 X translation displacement, node 20, m
        176   -4.987E+01                                 F               0         Blade 1 Y translation displacement, node 20, m
        177   -1.684E+02                                 F               0         Blade 1 Z translation displacement, node 20, m
        178    5.280E+00                                 F               0         Blade 1 X translation displacement, node 21, m
        179   -5.168E+01                                 F               0         Blade 1 Y translation displacement, node 21, m
        180   -1.755E+02                                 F               0         Blade 1 Z translation displacement, node 21, m
        181    3.989E+00                                 F               0         Blade 1 X translation displacement, node 22, m
        182   -5.349E+01                                 F               0         Blade 1 Y translation displacement, node 22, m
        183   -1.827E+02                                 F               0         Blade 1 Z translation displacement, node 22, m
        184    2.697E+00                                 F               0         Blade 1 X translation displacement, node 23, m
        185   -5.530E+01                                 F               0         Blade 1 Y translation displacement, node 23, m
        186   -1.898E+02                                 F               0         Blade 1 Z translation displacement, node 23, m
        187    1.406E+00                                 F               0         Blade 1 X translation displacement, node 24, m
        188   -5.711E+01                                 F               0         Blade 1 Y translation displacement, node 24, m
        189   -1.969E+02                                 F               0         Blade 1 Z translation displacement, node 24, m
        190    1.146E-01                                 F               0         Blade 1 X translation displacement, node 25, m
        191   -5.892E+01                                 F               0         Blade 1 Y translation displacement, node 25, m
        192   -2.041E+02                                 F               0         Blade 1 Z translation displacement, node 25, m
        193   -1.177E+00                                 F               0         Blade 1 X translation displacement, node 26, m
        194   -6.074E+01                                 F               0         Blade 1 Y translation displacement, node 26, m
        195   -2.112E+02                                 F               0         Blade 1 Z translation displacement, node 26, m
        196   -2.468E+00                                 F               0         Blade 1 X translation displacement, node 27, m
        197   -6.255E+01                                 F               0         Blade 1 Y translation displacement, node 27, m
        198   -2.184E+02                                 F               0         Blade 1 Z translation displacement, node 27, m
        199   -3.563E+00                                 F               0         Blade 1 X translation displacement, node 28, m
        200   -6.408E+01                                 F               0         Blade 1 Y translation displacement, node 28, m
        201   -2.244E+02                                 F               0         Blade 1 Z translation displacement, node 28, m
        202    7.745E-01,  4.431E-01, -4.514E-01         F               0         Blade 1 X orientation angle, node 1, rad
        203    5.895E-01, -7.644E-01,  2.611E-01         F               0         Blade 1 Y orientation angle, node 1, rad
        204   -2.294E-01, -4.684E-01, -8.532E-01         F               0         Blade 1 Z orientation angle, node 1, rad
        205    7.745E-01,  4.431E-01, -4.514E-01         F               0         Blade 1 X orientation angle, node 2, rad
        206    5.895E-01, -7.644E-01,  2.611E-01         F               0         Blade 1 Y orientation angle, node 2, rad
        207   -2.294E-01, -4.684E-01, -8.532E-01         F               0         Blade 1 Z orientation angle, node 2, rad
        208    8.922E-01,  2.493E-01, -3.767E-01         F               0         Blade 1 X orientation angle, node 3, rad
        209    3.891E-01, -8.476E-01,  3.607E-01         F               0         Blade 1 Y orientation angle, node 3, rad
        210   -2.294E-01, -4.684E-01, -8.532E-01         F               0         Blade 1 Z orientation angle, node 3, rad
        211    9.078E-01,  2.133E-01, -3.611E-01         F               0         Blade 1 X orientation angle, node 4, rad
        212    3.511E-01, -8.574E-01,  3.763E-01         F               0         Blade 1 Y orientation angle, node 4, rad
        213   -2.294E-01, -4.684E-01, -8.532E-01         F               0         Blade 1 Z orientation angle, node 4, rad
        214    9.190E-01,  1.847E-01, -3.484E-01         F               0         Blade 1 X orientation angle, node 5, rad
        215    3.208E-01, -8.640E-01,  3.880E-01         F               0         Blade 1 Y orientation angle, node 5, rad
        216   -2.294E-01, -4.684E-01, -8.532E-01         F               0         Blade 1 Z orientation angle, node 5, rad
        217    9.271E-01,  1.617E-01, -3.380E-01         F               0         Blade 1 X orientation angle, node 6, rad
        218    2.963E-01, -8.686E-01,  3.971E-01         F               0         Blade 1 Y orientation angle, node 6, rad
        219   -2.294E-01, -4.684E-01, -8.532E-01         F               0         Blade 1 Z orientation angle, node 6, rad
        220    9.334E-01,  1.427E-01, -3.293E-01         F               0         Blade 1 X orientation angle, node 7, rad
        221    2.760E-01, -8.719E-01,  4.044E-01         F               0         Blade 1 Y orientation angle, node 7, rad
        222   -2.294E-01, -4.684E-01, -8.532E-01         F               0         Blade 1 Z orientation angle, node 7, rad
        223    9.382E-01,  1.269E-01, -3.219E-01         F               0         Blade 1 X orientation angle, node 8, rad
        224    2.590E-01, -8.744E-01,  4.103E-01         F               0         Blade 1 Y orientation angle, node 8, rad
        225   -2.294E-01, -4.684E-01, -8.532E-01         F               0         Blade 1 Z orientation angle, node 8, rad
        226    9.421E-01,  1.134E-01, -3.155E-01         F               0         Blade 1 X orientation angle, node 9, rad
        227    2.446E-01, -8.762E-01,  4.152E-01         F               0         Blade 1 Y orientation angle, node 9, rad