
Linearized model: Predictions were generated on 13-Feb-2024 at 12:12:09 using OpenFAST, compiled as a 64-bit application using single precision at commit v3.5.1
 linked with  NWTC Subroutine Library; ElastoDyn; InflowWind; AeroDyn; ServoDyn; HydroDyn; MAP++ (<1.20.10>, <Oct-20-2023>)

Description from the FAST input file: CCT-9 Campign 4 model. Input files to be run with OpenFAST 3.5.0. GitHub branch from Lu Wang (https://github.com/luwang00/openfast/tree/dev) compiled on March 7, 2023.

Simulation information:
   Simulation time:                   772.2000 s
   Rotor Speed:                         0.7916 rad/s
   Azimuth:                             1.3973 rad
   Wind Speed:                         24.0000 m/s
   Number of continuous states:         0
   Number of discrete states:           0
   Number of constraint states:         0
   Number of inputs:                 1746
   Number of outputs:                   4
   Jacobians included in this file?    No

Order of inputs:
     Column   Operating Point                                                   Rotating Frame? Derivative Order Description
   ---------- ---------------                                                   --------------- ---------------- -----------
          1     8.55877113342E+000                                                     F               0         Tower X translation displacement, node 1, m
          2    -1.82819271088E+000                                                     F               0         Tower Y translation displacement, node 1, m
          3    -2.14611053467E-001                                                     F               0         Tower Z translation displacement, node 1, m
          4     9.73334121704E+000                                                     F               0         Tower X translation displacement, node 2, m
          5    -2.50493931770E+000                                                     F               0         Tower Y translation displacement, node 2, m
          6    -2.89206087589E-001                                                     F               0         Tower Z translation displacement, node 2, m
          7     1.09255628586E+001                                                     F               0         Tower X translation displacement, node 3, m
          8    -3.18927478790E+000                                                     F               0         Tower Y translation displacement, node 3, m
          9    -3.65918904543E-001                                                     F               0         Tower Z translation displacement, node 3, m
         10     1.21309556961E+001                                                     F               0         Tower X translation displacement, node 4, m
         11    -3.87985754013E+000                                                     F               0         Tower Y translation displacement, node 4, m
         12    -4.44267541170E-001                                                     F               0         Tower Z translation displacement, node 4, m
         13     1.33470096588E+001                                                     F               0         Tower X translation displacement, node 5, m
         14    -4.57608938217E+000                                                     F               0         Tower Y translation displacement, node 5, m
         15    -5.23983716965E-001                                                     F               0         Tower Z translation displacement, node 5, m
         16     1.45713882446E+001                                                     F               0         Tower X translation displacement, node 6, m
         17    -5.27733612061E+000                                                     F               0         Tower Y translation displacement, node 6, m
         18    -6.04823648930E-001                                                     F               0         Tower Z translation displacement, node 6, m
         19     1.58016014099E+001                                                     F               0         Tower X translation displacement, node 7, m
         20    -5.98261117935E+000                                                     F               0         Tower Y translation displacement, node 7, m
         21    -6.86463654041E-001                                                     F               0         Tower Z translation displacement, node 7, m
         22     1.70364589691E+001                                                     F               0         Tower X translation displacement, node 8, m
         23    -6.69159603119E+000                                                     F               0         Tower Y translation displacement, node 8, m
         24    -7.68795907497E-001                                                     F               0         Tower Z translation displacement, node 8, m
         25     1.82744216919E+001                                                     F               0         Tower X translation displacement, node 9, m
         26    -7.40352392197E+000                                                     F               0         Tower Y translation displacement, node 9, m
         27    -8.51602017879E-001                                                     F               0         Tower Z translation displacement, node 9, m
         28     1.95142498016E+001                                                     F               0         Tower X translation displacement, node 10, m
         29    -8.11758136749E+000                                                     F               0         Tower Y translation displacement, node 10, m
         30    -9.34726357460E-001                                                     F               0         Tower Z translation displacement, node 10, m
         31     2.07549724579E+001                                                     F               0         Tower X translation displacement, node 11, m
         32    -8.83297061920E+000                                                     F               0         Tower Y translation displacement, node 11, m
         33    -1.01801586151E+000                                                     F               0         Tower Z translation displacement, node 11, m
         34     9.95455265045E-001,  -6.68044155464E-003,  -9.49958786368E-002         F               0         Tower X orientation angle, node 1, rad
         35     1.18216620758E-002,   9.98489201069E-001,   5.36611378193E-002         F               0         Tower Y orientation angle, node 1, rad
         36     9.44938808680E-002,  -5.45402690768E-002,   9.94030296803E-001         F               0         Tower Z orientation angle, node 1, rad
         37     9.95325446129E-001,  -6.60566100851E-003,  -9.63516309857E-002         F               0         Tower X orientation angle, node 2, rad
         38     1.18748787791E-002,   9.98458564281E-001,   5.42169362307E-002         F               0         Tower Y orientation angle, node 2, rad
         39     9.58449766040E-002,  -5.51076605916E-002,   9.93869662285E-001         F               0         Tower Z orientation angle, node 2, rad
         40     9.95211660862E-001,  -6.54030637816E-003,  -9.75241810083E-002         F               0         Tower X orientation angle, node 3, rad
         41     1.19249438867E-002,   9.98429834843E-001,   5.47331608832E-002         F               0         Tower Y orientation angle, node 3, rad
         42     9.70130786300E-002,  -5.56340515614E-002,   9.93726968765E-001         F               0         Tower Z orientation angle, node 3, rad
         43     9.95116412640E-001,  -6.48563448340E-003,  -9.84951034188E-002         F               0         Tower X orientation angle, node 4, rad
         44     1.19711337611E-002,   9.98403310776E-001,   5.52047044039E-002         F               0         Tower Y orientation angle, node 4, rad
         45     9.79797989130E-002,  -5.61142042279E-002,   9.93605136871E-001         F               0         Tower Z orientation angle, node 4, rad
         46     9.95039284229E-001,  -6.44133053720E-003,  -9.92739945650E-002         F               0         Tower X orientation angle, node 5, rad
         47     1.20130600408E-002,   9.98379230499E-001,   5.56296370924E-002         F               0         Tower Y orientation angle, node 5, rad
         48     9.87547636032E-002,  -5.65462596714E-002,   9.93503928185E-001         F               0         Tower Z orientation angle, node 5, rad
         49     9.94979262352E-001,  -6.40672305599E-003,  -9.98762398958E-002         F               0         Tower X orientation angle, node 6, rad
         50     1.20502663776E-002,   9.98357772827E-001,   5.60049451888E-002         F               0         Tower Y orientation angle, node 6, rad
         51     9.93534103036E-002,  -5.69272935390E-002,   9.93422448635E-001         F               0         Tower Z orientation angle, node 6, rad
         52     9.94935750961E-001,  -6.38151075691E-003,  -1.00310280919E-001         F               0         Tower X orientation angle, node 7, rad
         53     1.20817916468E-002,   9.98339533806E-001,   5.63221611083E-002         F               0         Tower Y orientation angle, node 7, rad
         54     9.97842997313E-002,  -5.72488605976E-002,   9.93360817432E-001         F               0         Tower Z orientation angle, node 7, rad
         55     9.94905233383E-001,  -6.36371551082E-003,  -1.00613310933E-001         F               0         Tower X orientation angle, node 8, rad
         56     1.21075967327E-002,   9.98324573040E-001,   5.65815530717E-002         F               0         Tower Y orientation angle, node 8, rad
         57     1.00084677339E-001,  -5.75114712119E-002,   9.93315398693E-001         F               0         Tower Z orientation angle, node 8, rad
         58     9.94885563850E-001,  -6.35210098699E-003,  -1.00808836520E-001         F               0         Tower X orientation angle, node 9, rad
         59     1.21272895485E-002,   9.98313069344E-001,   5.67795336246E-002         F               0         Tower Y orientation angle, node 9, rad
         60     1.00278109312E-001,  -5.77116757631E-002,   9.93284285069E-001         F               0         Tower Z orientation angle, node 9, rad
         61     9.94874358177E-001,  -6.34544063359E-003,  -1.00919559598E-001         F               0         Tower X orientation angle, node 10, rad
         62     1.21405757964E-002,   9.98305320740E-001,   5.69132491946E-002         F               0         Tower Y orientation angle, node 10, rad
         63     1.00387394428E-001,  -5.78467547894E-002,   9.93265390396E-001         F               0         Tower Z orientation angle, node 10, rad
         64     9.94869172573E-001,  -6.34231418371E-003,  -1.00970819592E-001         F               0         Tower X orientation angle, node 11, rad
         65     1.21479872614E-002,   9.98300969601E-001,   5.69879487157E-002         F               0         Tower Y orientation angle, node 11, rad
         66     1.00437827408E-001,  -5.79221472144E-002,   9.93255913258E-001         F               0         Tower Z orientation angle, node 11, rad
         67    -6.80870070937E-005                                                     F               0         Tower X translation velocity, node 1, m/s
         68     4.56033134833E-003                                                     F               0         Tower Y translation velocity, node 1, m/s
         69     6.54763658531E-004                                                     F               0         Tower Z translation velocity, node 1, m/s
         70     1.24232565213E-005                                                     F               0         Tower X translation velocity, node 2, m/s
         71     5.70127926767E-003                                                     F               0         Tower Y translation velocity, node 2, m/s
         72     7.09968502633E-004                                                     F               0         Tower Z translation velocity, node 2, m/s
         73    -3.61210171832E-004                                                     F               0         Tower X translation velocity, node 3, m/s
         74     6.14809012040E-003                                                     F               0         Tower Y translation velocity, node 3, m/s
         75     7.71126884501E-004                                                     F               0         Tower Z translation velocity, node 3, m/s
         76    -9.79922362603E-004                                                     F               0         Tower X translation velocity, node 4, m/s
         77     6.04558363557E-003                                                     F               0         Tower Y translation velocity, node 4, m/s
         78     8.26069328468E-004                                                     F               0         Tower Z translation velocity, node 4, m/s
         79    -1.70182192232E-003                                                     F               0         Tower X translation velocity, node 5, m/s
         80     5.46669680625E-003                                                     F               0         Tower Y translation velocity, node 5, m/s
         81     8.64701170940E-004                                                     F               0         Tower Z translation velocity, node 5, m/s
         82    -2.40694009699E-003                                                     F               0         Tower X translation velocity, node 6, m/s
         83     4.48321644217E-003                                                     F               0         Tower Y translation velocity, node 6, m/s
         84     8.78797436599E-004                                                     F               0         Tower Z translation velocity, node 6, m/s
         85    -3.01707768813E-003                                                     F               0         Tower X translation velocity, node 7, m/s
         86     3.18853231147E-003                                                     F               0         Tower Y translation velocity, node 7, m/s
         87     8.65522189997E-004                                                     F               0         Tower Z translation velocity, node 7, m/s
         88    -3.46910068765E-003                                                     F               0         Tower X translation velocity, node 8, m/s
         89     1.61849171855E-003                                                     F               0         Tower Y translation velocity, node 8, m/s
         90     8.20299959742E-004                                                     F               0         Tower Z translation velocity, node 8, m/s
         91    -3.73835721985E-003                                                     F               0         Tower X translation velocity, node 9, m/s
         92    -1.61122545251E-004                                                     F               0         Tower Y translation velocity, node 9, m/s
         93     7.44245771784E-004                                                     F               0         Tower Z translation velocity, node 9, m/s
         94    -3.83601151407E-003                                                     F               0         Tower X translation velocity, node 10, m/s
         95    -2.08741123788E-003                                                     F               0         Tower Y translation velocity, node 10, m/s
         96     6.42070255708E-004                                                     F               0         Tower Z translation velocity, node 10, m/s
         97    -3.79881891422E-003                                                     F               0         Tower X translation velocity, node 11, m/s
         98    -4.10381285474E-003                                                     F               0         Tower Y translation velocity, node 11, m/s
         99     5.20881847478E-004                                                     F               0         Tower Z translation velocity, node 11, m/s
        100     2.15988426208E+001                                                     F               0         Hub X translation displacement, node 1, m
        101    -9.21916961670E+000                                                     F               0         Hub Y translation displacement, node 1, m
        102     1.95830762386E-002                                                     F               0         Hub Z translation displacement, node 1, m
        103     9.78920578957E-001,  -2.53056961810E-004,  -2.04241201282E-001         F               0         Hub X orientation angle, node 1, rad
        104     2.02917203307E-001,   1.14891156554E-001,   9.72432315350E-001         F               0         Hub Y orientation angle, node 1, rad
        105     2.32194270939E-002,  -9.93378043175E-001,   1.12520664930E-001         F               0         Hub Z orientation angle, node 1, rad
        106     7.75090515614E-001                                                     F               0         Hub X rotation velocity, node 1, rad/s
        107    -1.93353131181E-004                                                     F               0         Hub Y rotation velocity, node 1, rad/s
        108    -1.61707028747E-001                                                     F               0         Hub Z rotation velocity, node 1, rad/s
        109     8.77720534801E-001,  -3.36264371872E-002,  -4.77991610765E-001         F               0         Blade root 1 X orientation angle, node 1, rad
        110     4.78610038757E-001,   1.09860382974E-001,   8.71127486229E-001         F               0         Blade root 1 Y orientation angle, node 1, rad
        111     2.32194270939E-002,  -9.93378043175E-001,   1.12520664930E-001         F               0         Blade root 1 Z orientation angle, node 1, rad
        112     9.60320949554E-001,   2.66427487135E-001,  -8.24624598026E-002         F               0         Blade root 2 X orientation angle, node 1, rad
        113     2.06608191133E-001,  -8.78211915493E-001,  -4.31343078613E-001         F               0         Blade root 2 Y orientation angle, node 1, rad
        114    -1.87341168523E-001,   3.97190362215E-001,  -8.98411452770E-001         F               0         Blade root 2 Z orientation angle, node 1, rad
        115     9.72007036209E-001,  -2.33527451754E-001,  -2.58321985602E-002         F               0         Blade root 3 X orientation angle, node 1, rad
        116     1.68126225471E-001,   7.68130958080E-001,  -6.17825567722E-001         F               0         Blade root 3 Y orientation angle, node 1, rad
        117     1.64121732116E-001,   5.96187710762E-001,   7.85890758038E-001         F               0         Blade root 3 Z orientation angle, node 1, rad
        118     2.11483898163E+001                                                     F               0         Blade 1 X translation displacement, node 1, m
        119    -1.47224836349E+001                                                     F               0         Blade 1 Y translation displacement, node 1, m
        120    -4.86671113968E+000                                                     F               0         Blade 1 Z translation displacement, node 1, m
        121     2.10398502350E+001                                                     F               0         Blade 1 X translation displacement, node 2, m
        122    -1.60485496521E+001                                                     F               0         Blade 1 Y translation displacement, node 2, m
        123    -6.04409742355E+000                                                     F               0         Blade 1 Z translation displacement, node 2, m
        124     1.95638961792E+001                                                     F               0         Blade 1 X translation displacement, node 3, m
        125    -3.40807533264E+001                                                     F               0         Blade 1 Y translation displacement, node 3, m
        126    -2.20545406342E+001                                                     F               0         Blade 1 Z translation displacement, node 3, m
        127     1.92494354248E+001                                                     F               0         Blade 1 X translation displacement, node 4, m
        128    -3.79226188660E+001                                                     F               0         Blade 1 Y translation displacement, node 4, m
        129    -2.54656677246E+001                                                     F               0         Blade 1 Z translation displacement, node 4, m
        130     1.89349155426E+001                                                     F               0         Blade 1 X translation displacement, node 5, m
        131    -4.17652168274E+001                                                     F               0         Blade 1 Y translation displacement, node 5, m
        132    -2.88774280548E+001                                                     F               0         Blade 1 Z translation displacement, node 5, m
        133     1.86204528809E+001                                                     F               0         Blade 1 X translation displacement, node 6, m
        134    -4.56071014404E+001                                                     F               0         Blade 1 Y translation displacement, node 6, m
        135    -3.22885704041E+001                                                     F               0         Blade 1 Z translation displacement, node 6, m
        136     1.83059883118E+001                                                     F               0         Blade 1 X translation displacement, node 7, m
        137    -4.94489974976E+001                                                     F               0         Blade 1 Y translation displacement, node 7, m
        138    -3.56997070312E+001                                                     F               0         Blade 1 Z translation displacement, node 7, m
        139     1.79914703369E+001                                                     F               0         Blade 1 X translation displacement, node 8, m
        140    -5.32915802002E+001                                                     F               0         Blade 1 Y translation displacement, node 8, m
        141    -3.91114730835E+001                                                     F               0         Blade 1 Z translation displacement, node 8, m
        142     1.76770057678E+001                                                     F               0         Blade 1 X translation displacement, node 9, m
        143    -5.71334762573E+001                                                     F               0         Blade 1 Y translation displacement, node 9, m
        144    -4.25226097107E+001                                                     F               0         Blade 1 Z translation displacement, node 9, m
        145     1.73625450134E+001                                                     F               0         Blade 1 X translation displacement, node 10, m
        146    -6.09753608704E+001                                                     F               0         Blade 1 Y translation displacement, node 10, m
        147    -4.59337501526E+001                                                     F               0         Blade 1 Z translation displacement, node 10, m
        148     1.70480804443E+001                                                     F               0         Blade 1 X translation displacement, node 11, m
        149    -6.48172531128E+001                                                     F               0         Blade 1 Y translation displacement, node 11, m
        150    -4.93448905945E+001                                                     F               0         Blade 1 Z translation displacement, node 11, m
        151     1.67335624695E+001                                                     F               0         Blade 1 X translation displacement, node 12, m
        152    -6.86598281860E+001                                                     F               0         Blade 1 Y translation displacement, node 12, m
        153    -5.27566413879E+001                                                     F               0         Blade 1 Z translation displacement, node 12, m
        154     1.64190998077E+001                                                     F               0         Blade 1 X translation displacement, node 13, m
        155    -7.25017242432E+001                                                     F               0         Blade 1 Y translation displacement, node 13, m
        156    -5.61677780151E+001                                                     F               0         Blade 1 Z translation displacement, node 13, m
        157     1.61046371460E+001                                                     F               0         Blade 1 X translation displacement, node 14, m
        158    -7.63436050415E+001                                                     F               0         Blade 1 Y translation displacement, node 14, m
        159    -5.95789184570E+001                                                     F               0         Blade 1 Z translation displacement, node 14, m
        160     1.57901163101E+001                                                     F               0         Blade 1 X translation displacement, node 15, m
        161    -8.01861953735E+001                                                     F               0         Blade 1 Y translation displacement, node 15, m
        162    -6.29906806946E+001                                                     F               0         Blade 1 Z translation displacement, node 15, m
        163     1.54756546021E+001                                                     F               0         Blade 1 X translation displacement, node 16, m
        164    -8.40280838013E+001                                                     F               0         Blade 1 Y translation displacement, node 16, m
        165    -6.64018249512E+001                                                     F               0         Blade 1 Z translation displacement, node 16, m
        166     1.51611909866E+001                                                     F               0         Blade 1 X translation displacement, node 17, m
        167    -8.78699874878E+001                                                     F               0         Blade 1 Y translation displacement, node 17, m
        168    -6.98129653931E+001                                                     F               0         Blade 1 Z translation displacement, node 17, m
        169     1.48467292786E+001                                                     F               0         Blade 1 X translation displacement, node 18, m
        170    -9.17118682861E+001                                                     F               0         Blade 1 Y translation displacement, node 18, m
        171    -7.32241058350E+001                                                     F               0         Blade 1 Z translation displacement, node 18, m
        172     1.45322103500E+001                                                     F               0         Blade 1 X translation displacement, node 19, m
        173    -9.55544357300E+001                                                     F               0         Blade 1 Y translation displacement, node 19, m
        174    -7.66358489990E+001                                                     F               0         Blade 1 Z translation displacement, node 19, m
        175     1.42177457809E+001                                                     F               0         Blade 1 X translation displacement, node 20, m
        176    -9.93963394165E+001                                                     F               0         Blade 1 Y translation displacement, node 20, m
        177    -8.00469894409E+001                                                     F               0         Blade 1 Z translation displacement, node 20, m
        178     1.39032850266E+001                                                     F               0         Blade 1 X translation displacement, node 21, m
        179    -1.03238227844E+002                                                     F               0         Blade 1 Y translation displacement, node 21, m
        180    -8.34581298828E+001                                                     F               0         Blade 1 Z translation displacement, node 21, m
        181     1.35887641907E+001                                                     F               0         Blade 1 X translation displacement, node 22, m
        182    -1.07080810547E+002                                                     F               0         Blade 1 Y translation displacement, node 22, m
        183    -8.68698883057E+001                                                     F               0         Blade 1 Z translation displacement, node 22, m