
Linearized model: Predictions were generated on 12-Jan-2024 at 09:28:28 using OpenFAST, compiled as a 64-bit application using single precision at commit v3.5.1
 linked with  NWTC Subroutine Library; ElastoDyn; InflowWind; AeroDyn; ServoDyn; HydroDyn; MAP++ (<1.20.10>, <Oct-20-2023>)

Description from the FAST input file: CCT-9 Campign 4 model. Input files to be run with OpenFAST 3.5.0. GitHub branch from Lu Wang (https://github.com/luwang00/openfast/tree/dev) compiled on March 7, 2023.

Simulation information:
   Simulation time:                   502.9750 s
   Rotor Speed:                         0.8769 rad/s
   Azimuth:                             0.1822 rad
   Wind Speed:                         10.0000 m/s
   Number of continuous states:         0
   Number of discrete states:           0
   Number of constraint states:         0
   Number of inputs:                 1746
   Number of outputs:                   4
   Jacobians included in this file?    No

Order of inputs:
     Column   Operating Point                     Rotating Frame? Derivative Order Description
   ---------- ---------------                     --------------- ---------------- -----------
          1    1.101E+01                                 F               0         Tower X translation displacement, node 1, m
          2   -1.231E+00                                 F               0         Tower Y translation displacement, node 1, m
          3   -3.275E-01                                 F               0         Tower Z translation displacement, node 1, m
          4    1.248E+01                                 F               0         Tower X translation displacement, node 2, m
          5   -1.817E+00                                 F               0         Tower Y translation displacement, node 2, m
          6   -4.291E-01                                 F               0         Tower Z translation displacement, node 2, m
          7    1.397E+01                                 F               0         Tower X translation displacement, node 3, m
          8   -2.408E+00                                 F               0         Tower Y translation displacement, node 3, m
          9   -5.339E-01                                 F               0         Tower Z translation displacement, node 3, m
         10    1.548E+01                                 F               0         Tower X translation displacement, node 4, m
         11   -3.004E+00                                 F               0         Tower Y translation displacement, node 4, m
         12   -6.412E-01                                 F               0         Tower Z translation displacement, node 4, m
         13    1.701E+01                                 F               0         Tower X translation displacement, node 5, m
         14   -3.604E+00                                 F               0         Tower Y translation displacement, node 5, m
         15   -7.506E-01                                 F               0         Tower Z translation displacement, node 5, m
         16    1.855E+01                                 F               0         Tower X translation displacement, node 6, m
         17   -4.207E+00                                 F               0         Tower Y translation displacement, node 6, m
         18   -8.617E-01                                 F               0         Tower Z translation displacement, node 6, m
         19    2.010E+01                                 F               0         Tower X translation displacement, node 7, m
         20   -4.812E+00                                 F               0         Tower Y translation displacement, node 7, m
         21   -9.741E-01                                 F               0         Tower Z translation displacement, node 7, m
         22    2.165E+01                                 F               0         Tower X translation displacement, node 8, m
         23   -5.420E+00                                 F               0         Tower Y translation displacement, node 8, m
         24   -1.088E+00                                 F               0         Tower Z translation displacement, node 8, m
         25    2.321E+01                                 F               0         Tower X translation displacement, node 9, m
         26   -6.029E+00                                 F               0         Tower Y translation displacement, node 9, m
         27   -1.202E+00                                 F               0         Tower Z translation displacement, node 9, m
         28    2.478E+01                                 F               0         Tower X translation displacement, node 10, m
         29   -6.639E+00                                 F               0         Tower Y translation displacement, node 10, m
         30   -1.316E+00                                 F               0         Tower Z translation displacement, node 10, m
         31    2.634E+01                                 F               0         Tower X translation displacement, node 11, m
         32   -7.250E+00                                 F               0         Tower Y translation displacement, node 11, m
         33   -1.431E+00                                 F               0         Tower Z translation displacement, node 11, m
         34    9.930E-01,  9.778E-03, -1.177E-01         F               0         Tower X orientation angle, node 1, rad
         35   -4.140E-03,  9.988E-01,  4.804E-02         F               0         Tower Y orientation angle, node 1, rad
         36    1.180E-01, -4.722E-02,  9.919E-01         F               0         Tower Z orientation angle, node 1, rad
         37    9.928E-01,  9.867E-03, -1.196E-01         F               0         Tower X orientation angle, node 2, rad
         38   -4.086E-03,  9.988E-01,  4.849E-02         F               0         Tower Y orientation angle, node 2, rad
         39    1.199E-01, -4.765E-02,  9.916E-01         F               0         Tower Z orientation angle, node 2, rad
         40    9.926E-01,  9.946E-03, -1.212E-01         F               0         Tower X orientation angle, node 3, rad
         41   -4.038E-03,  9.988E-01,  4.889E-02         F               0         Tower Y orientation angle, node 3, rad
         42    1.216E-01, -4.803E-02,  9.914E-01         F               0         Tower Z orientation angle, node 3, rad
         43    9.924E-01,  1.001E-02, -1.226E-01         F               0         Tower X orientation angle, node 4, rad
         44   -3.995E-03,  9.988E-01,  4.923E-02         F               0         Tower Y orientation angle, node 4, rad
         45    1.229E-01, -4.837E-02,  9.912E-01         F               0         Tower Z orientation angle, node 4, rad
         46    9.923E-01,  1.007E-02, -1.237E-01         F               0         Tower X orientation angle, node 5, rad
         47   -3.958E-03,  9.988E-01,  4.953E-02         F               0         Tower Y orientation angle, node 5, rad
         48    1.241E-01, -4.866E-02,  9.911E-01         F               0         Tower Z orientation angle, node 5, rad
         49    9.921E-01,  1.011E-02, -1.246E-01         F               0         Tower X orientation angle, node 6, rad
         50   -3.927E-03,  9.988E-01,  4.978E-02         F               0         Tower Y orientation angle, node 6, rad
         51    1.250E-01, -4.890E-02,  9.910E-01         F               0         Tower Z orientation angle, node 6, rad
         52    9.921E-01,  1.015E-02, -1.253E-01         F               0         Tower X orientation angle, node 7, rad
         53   -3.901E-03,  9.987E-01,  4.998E-02         F               0         Tower Y orientation angle, node 7, rad
         54    1.257E-01, -4.910E-02,  9.909E-01         F               0         Tower Z orientation angle, node 7, rad
         55    9.920E-01,  1.017E-02, -1.258E-01         F               0         Tower X orientation angle, node 8, rad
         56   -3.882E-03,  9.987E-01,  5.014E-02         F               0         Tower Y orientation angle, node 8, rad
         57    1.262E-01, -4.925E-02,  9.908E-01         F               0         Tower Z orientation angle, node 8, rad
         58    9.920E-01,  1.019E-02, -1.262E-01         F               0         Tower X orientation angle, node 9, rad
         59   -3.867E-03,  9.987E-01,  5.025E-02         F               0         Tower Y orientation angle, node 9, rad
         60    1.265E-01, -4.936E-02,  9.907E-01         F               0         Tower Z orientation angle, node 9, rad
         61    9.919E-01,  1.020E-02, -1.264E-01         F               0         Tower X orientation angle, node 10, rad
         62   -3.858E-03,  9.987E-01,  5.033E-02         F               0         Tower Y orientation angle, node 10, rad
         63    1.267E-01, -4.943E-02,  9.907E-01         F               0         Tower Z orientation angle, node 10, rad
         64    9.919E-01,  1.021E-02, -1.265E-01         F               0         Tower X orientation angle, node 11, rad
         65   -3.853E-03,  9.987E-01,  5.037E-02         F               0         Tower Y orientation angle, node 11, rad
         66    1.268E-01, -4.947E-02,  9.907E-01         F               0         Tower Z orientation angle, node 11, rad
         67   -4.884E-03                                 F               0         Tower X translation velocity, node 1, m/s
         68    4.408E-04                                 F               0         Tower Y translation velocity, node 1, m/s
         69    1.581E-03                                 F               0         Tower Z translation velocity, node 1, m/s
         70   -5.250E-03                                 F               0         Tower X translation velocity, node 2, m/s
         71   -1.024E-03                                 F               0         Tower Y translation velocity, node 2, m/s
         72    1.555E-03                                 F               0         Tower Z translation velocity, node 2, m/s
         73   -5.563E-03                                 F               0         Tower X translation velocity, node 3, m/s
         74   -2.614E-03                                 F               0         Tower Y translation velocity, node 3, m/s
         75    1.516E-03                                 F               0         Tower Z translation velocity, node 3, m/s
         76   -5.832E-03                                 F               0         Tower X translation velocity, node 4, m/s
         77   -4.303E-03                                 F               0         Tower Y translation velocity, node 4, m/s
         78    1.467E-03                                 F               0         Tower Z translation velocity, node 4, m/s
         79   -6.064E-03                                 F               0         Tower X translation velocity, node 5, m/s
         80   -6.080E-03                                 F               0         Tower Y translation velocity, node 5, m/s
         81    1.409E-03                                 F               0         Tower Z translation velocity, node 5, m/s
         82   -6.263E-03                                 F               0         Tower X translation velocity, node 6, m/s
         83   -7.933E-03                                 F               0         Tower Y translation velocity, node 6, m/s
         84    1.343E-03                                 F               0         Tower Z translation velocity, node 6, m/s
         85   -6.436E-03                                 F               0         Tower X translation velocity, node 7, m/s
         86   -9.846E-03                                 F               0         Tower Y translation velocity, node 7, m/s
         87    1.270E-03                                 F               0         Tower Z translation velocity, node 7, m/s
         88   -6.587E-03                                 F               0         Tower X translation velocity, node 8, m/s
         89   -1.181E-02                                 F               0         Tower Y translation velocity, node 8, m/s
         90    1.192E-03                                 F               0         Tower Z translation velocity, node 8, m/s
         91   -6.720E-03                                 F               0         Tower X translation velocity, node 9, m/s
         92   -1.382E-02                                 F               0         Tower Y translation velocity, node 9, m/s
         93    1.109E-03                                 F               0         Tower Z translation velocity, node 9, m/s
         94   -6.841E-03                                 F               0         Tower X translation velocity, node 10, m/s
         95   -1.586E-02                                 F               0         Tower Y translation velocity, node 10, m/s
         96    1.023E-03                                 F               0         Tower Z translation velocity, node 10, m/s
         97   -6.954E-03                                 F               0         Tower X translation velocity, node 11, m/s
         98   -1.791E-02                                 F               0         Tower Y translation velocity, node 11, m/s
         99    9.345E-04                                 F               0         Tower Z translation velocity, node 11, m/s
        100    2.743E+01                                 F               0         Hub X translation displacement, node 1, m
        101   -7.749E+00                                 F               0         Hub Y translation displacement, node 1, m
        102   -1.384E-01                                 F               0         Hub Z translation displacement, node 1, m
        103    9.732E-01,  1.532E-02, -2.294E-01         F               0         Hub X orientation angle, node 1, rad
        104    3.786E-02,  9.735E-01,  2.257E-01         F               0         Hub Y orientation angle, node 1, rad
        105    2.267E-01, -2.283E-01,  9.468E-01         F               0         Hub Z orientation angle, node 1, rad
        106    8.536E-01                                 F               0         Hub X rotation velocity, node 1, rad/s
        107    1.342E-02                                 F               0         Hub Y rotation velocity, node 1, rad/s
        108   -2.011E-01                                 F               0         Hub Z rotation velocity, node 1, rad/s
        109    9.717E-01, -1.356E-02, -2.359E-01         F               0         Blade root 1 X orientation angle, node 1, rad
        110    6.671E-02,  9.735E-01,  2.188E-01         F               0         Blade root 1 Y orientation angle, node 1, rad
        111    2.267E-01, -2.283E-01,  9.468E-01         F               0         Blade root 1 Z orientation angle, node 1, rad
        112    9.675E-01,  3.562E-02, -2.502E-01         F               0         Blade root 2 X orientation angle, node 1, rad
        113    2.062E-01, -6.837E-01,  7.000E-01         F               0         Blade root 2 Y orientation angle, node 1, rad
        114   -1.461E-01, -7.289E-01, -6.689E-01         F               0         Blade root 2 Z orientation angle, node 1, rad
        115    9.792E-01,  2.389E-02, -2.016E-01         F               0         Blade root 3 X orientation angle, node 1, rad
        116   -1.863E-01, -2.884E-01, -9.392E-01         F               0         Blade root 3 Y orientation angle, node 1, rad
        117   -8.058E-02,  9.572E-01, -2.780E-01         F               0         Blade root 3 Z orientation angle, node 1, rad
        118    2.810E+01                                 F               0         Blade 1 X translation displacement, node 1, m
        119   -9.014E+00                                 F               0         Blade 1 Y translation displacement, node 1, m
        120   -4.027E-01                                 F               0         Blade 1 Z translation displacement, node 1, m
        121    2.827E+01                                 F               0         Blade 1 X translation displacement, node 2, m
        122   -9.319E+00                                 F               0         Blade 1 Y translation displacement, node 2, m
        123   -4.664E-01                                 F               0         Blade 1 Z translation displacement, node 2, m
        124    3.049E+01                                 F               0         Blade 1 X translation displacement, node 3, m
        125   -1.346E+01                                 F               0         Blade 1 Y translation displacement, node 3, m
        126   -1.332E+00                                 F               0         Blade 1 Z translation displacement, node 3, m
        127    3.096E+01                                 F               0         Blade 1 X translation displacement, node 4, m
        128   -1.435E+01                                 F               0         Blade 1 Y translation displacement, node 4, m
        129   -1.517E+00                                 F               0         Blade 1 Z translation displacement, node 4, m
        130    3.143E+01                                 F               0         Blade 1 X translation displacement, node 5, m
        131   -1.523E+01                                 F               0         Blade 1 Y translation displacement, node 5, m
        132   -1.701E+00                                 F               0         Blade 1 Z translation displacement, node 5, m
        133    3.190E+01                                 F               0         Blade 1 X translation displacement, node 6, m
        134   -1.611E+01                                 F               0         Blade 1 Y translation displacement, node 6, m
        135   -1.886E+00                                 F               0         Blade 1 Z translation displacement, node 6, m
        136    3.238E+01                                 F               0         Blade 1 X translation displacement, node 7, m
        137   -1.700E+01                                 F               0         Blade 1 Y translation displacement, node 7, m
        138   -2.070E+00                                 F               0         Blade 1 Z translation displacement, node 7, m
        139    3.285E+01                                 F               0         Blade 1 X translation displacement, node 8, m
        140   -1.788E+01                                 F               0         Blade 1 Y translation displacement, node 8, m
        141   -2.255E+00                                 F               0         Blade 1 Z translation displacement, node 8, m
        142    3.332E+01                                 F               0         Blade 1 X translation displacement, node 9, m
        143   -1.876E+01                                 F               0         Blade 1 Y translation displacement, node 9, m
        144   -2.439E+00                                 F               0         Blade 1 Z translation displacement, node 9, m
        145    3.379E+01                                 F               0         Blade 1 X translation displacement, node 10, m
        146   -1.964E+01                                 F               0         Blade 1 Y translation displacement, node 10, m
        147   -2.624E+00                                 F               0         Blade 1 Z translation displacement, node 10, m
        148    3.427E+01                                 F               0         Blade 1 X translation displacement, node 11, m
        149   -2.053E+01                                 F               0         Blade 1 Y translation displacement, node 11, m
        150   -2.808E+00                                 F               0         Blade 1 Z translation displacement, node 11, m
        151    3.474E+01                                 F               0         Blade 1 X translation displacement, node 12, m
        152   -2.141E+01                                 F               0         Blade 1 Y translation displacement, node 12, m
        153   -2.993E+00                                 F               0         Blade 1 Z translation displacement, node 12, m
        154    3.521E+01                                 F               0         Blade 1 X translation displacement, node 13, m
        155   -2.229E+01                                 F               0         Blade 1 Y translation displacement, node 13, m
        156   -3.177E+00                                 F               0         Blade 1 Z translation displacement, node 13, m
        157    3.568E+01                                 F               0         Blade 1 X translation displacement, node 14, m
        158   -2.318E+01                                 F               0         Blade 1 Y translation displacement, node 14, m
        159   -3.362E+00                                 F               0         Blade 1 Z translation displacement, node 14, m
        160    3.616E+01                                 F               0         Blade 1 X translation displacement, node 15, m
        161   -2.406E+01                                 F               0         Blade 1 Y translation displacement, node 15, m
        162   -3.546E+00                                 F               0         Blade 1 Z translation displacement, node 15, m
        163    3.663E+01                                 F               0         Blade 1 X translation displacement, node 16, m
        164   -2.494E+01                                 F               0         Blade 1 Y translation displacement, node 16, m
        165   -3.731E+00                                 F               0         Blade 1 Z translation displacement, node 16, m
        166    3.710E+01                                 F               0         Blade 1 X translation displacement, node 17, m
        167   -2.583E+01                                 F               0         Blade 1 Y translation displacement, node 17, m
        168   -3.915E+00                                 F               0         Blade 1 Z translation displacement, node 17, m
        169    3.757E+01                                 F               0         Blade 1 X translation displacement, node 18, m
        170   -2.671E+01                                 F               0         Blade 1 Y translation displacement, node 18, m
        171   -4.100E+00                                 F               0         Blade 1 Z translation displacement, node 18, m
        172    3.805E+01                                 F               0         Blade 1 X translation displacement, node 19, m
        173   -2.759E+01                                 F               0         Blade 1 Y translation displacement, node 19, m
        174   -4.284E+00                                 F               0         Blade 1 Z translation displacement, node 19, m
        175    3.852E+01                                 F               0         Blade 1 X translation displacement, node 20, m
        176   -2.848E+01                                 F               0         Blade 1 Y translation displacement, node 20, m
        177   -4.469E+00                                 F               0         Blade 1 Z translation displacement, node 20, m
        178    3.899E+01                                 F               0         Blade 1 X translation displacement, node 21, m
        179   -2.936E+01                                 F               0         Blade 1 Y translation displacement, node 21, m
        180   -4.653E+00                                 F               0         Blade 1 Z translation displacement, node 21, m
        181    3.947E+01                                 F               0         Blade 1 X translation displacement, node 22, m
        182   -3.024E+01                                 F               0         Blade 1 Y translation displacement, node 22, m
        183   -4.838E+00                                 F               0         Blade 1 Z translation displacement, node 22, m
        184    3.994E+01                                 F               0         Blade 1 X translation displacement, node 23, m
        185   -3.112E+01                                 F               0         Blade 1 Y translation displacement, node 23, m
        186   -5.022E+00                                 F               0         Blade 1 Z translation displacement, node 23, m
        187    4.041E+01                                 F               0         Blade 1 X translation displacement, node 24, m
        188   -3.201E+01                                 F               0         Blade 1 Y translation displacement, node 24, m
        189   -5.207E+00                                 F               0         Blade 1 Z translation displacement, node 24, m
        190    4.088E+01                                 F               0         Blade 1 X translation displacement, node 25, m
        191   -3.289E+01                                 F               0         Blade 1 Y translation displacement, node 25, m
        192   -5.391E+00                                 F               0         Blade 1 Z translation displacement, node 25, m
        193    4.136E+01                                 F               0         Blade 1 X translation displacement, node 26, m
        194   -3.377E+01                                 F               0         Blade 1 Y translation displacement, node 26, m
        195   -5.576E+00                                 F               0         Blade 1 Z translation displacement, node 26, m
        196    4.183E+01                                 F               0         Blade 1 X translation displacement, node 27, m
        197   -3.466E+01                                 F               0         Blade 1 Y translation displacement, node 27, m
        198   -5.760E+00                                 F               0         Blade 1 Z translation displacement, node 27, m
        199    4.223E+01                                 F               0         Blade 1 X translation displacement, node 28, m
        200   -3.541E+01                                 F               0         Blade 1 Y translation displacement, node 28, m
        201   -5.917E+00                                 F               0         Blade 1 Z translation displacement, node 28, m
        202    8.343E-01, -4.560E-01, -3.097E-01         F               0         Blade 1 X orientation angle, node 1, rad
        203    5.025E-01,  8.602E-01,  8.711E-02         F               0         Blade 1 Y orientation angle, node 1, rad
        204    2.267E-01, -2.283E-01,  9.468E-01         F               0         Blade 1 Z orientation angle, node 1, rad
        205    8.343E-01, -4.560E-01, -3.097E-01         F               0         Blade 1 X orientation angle, node 2, rad
        206    5.025E-01,  8.602E-01,  8.711E-02         F               0         Blade 1 Y orientation angle, node 2, rad
        207    2.267E-01, -2.283E-01,  9.468E-01         F               0         Blade 1 Z orientation angle, node 2, rad
        208    9.297E-01, -2.391E-01, -2.803E-01         F               0         Blade 1 X orientation angle, node 3, rad
        209    2.904E-01,  9.438E-01,  1.580E-01         F               0         Blade 1 Y orientation angle, node 3, rad
        210    2.267E-01, -2.283E-01,  9.468E-01         F               0         Blade 1 Z orientation angle, node 3, rad
        211    9.411E-01, -1.991E-01, -2.734E-01         F               0         Blade 1 X orientation angle, node 4, rad
        212    2.509E-01,  9.530E-01,  1.697E-01         F               0         Blade 1 Y orientation angle, node 4, rad
        213    2.267E-01, -2.283E-01,  9.468E-01         F               0         Blade 1 Z orientation angle, node 4, rad
        214    9.489E-01, -1.674E-01, -2.676E-01         F               0         Blade 1 X orientation angle, node 5, rad
        215    2.196E-01,  9.591E-01,  1.787E-01         F               0         Blade 1 Y orientation angle, node 5, rad
        216    2.267E-01, -2.283E-01,  9.468E-01         F               0         Blade 1 Z orientation angle, node 5, rad
        217    9.544E-01, -1.419E-01, -2.627E-01         F               0         Blade 1 X orientation angle, node 6, rad
        218    1.943E-01,  9.632E-01,  1.857E-01         F               0         Blade 1 Y orientation angle, node 6, rad
        219    2.267E-01, -2.283E-01,  9.468E-01         F               0         Blade 1 Z orientation angle, node 6, rad
        220    9.584E-01, -1.208E-01, -2.586E-01         F               0         Blade 1 X orientation angle, node 7, rad
        221    1.734E-01,  9.661E-01,  1.914E-01         F               0         Blade 1 Y orientation angle, node 7, rad
        222    2.267E-01, -2.283E-01,  9.468E-01         F               0         Blade 1 Z orientation angle, node 7, rad
        223    9.614E-01, -1.033E-01, -2.551E-01         F               0         Blade 1 X orientation angle, node 8, rad
        224    1.560E-01,  9.681E-01,  1.961E-01         F               0         Blade 1 Y orientation angle, node 8, rad
        225    2.267E-01, -2.283E-01,  9.468E-01         F               0         Blade 1 Z orientation angle, node 8, rad
        226    9.637E-01, -8.838E-02, -2.521E-01         F               0         Blade 1 X orientation angle, node 9, rad
        227    1.412E-01,  9.696E-01,  2.000E-01         F               0         Blade 1 Y orientation angle, node 9, rad