
Linearized model: Predictions were generated on 12-Jan-2024 at 09:28:28 using OpenFAST, compiled as a 64-bit application using single precision at commit v3.5.1
 linked with  NWTC Subroutine Library; ElastoDyn; InflowWind; AeroDyn; ServoDyn; HydroDyn; MAP++ (<1.20.10>, <Oct-20-2023>)

Description from the FAST input file: CCT-9 Campign 4 model. Input files to be run with OpenFAST 3.5.0. GitHub branch from Lu Wang (https://github.com/luwang00/openfast/tree/dev) compiled on March 7, 2023.

Simulation information:
   Simulation time:                   503.2250 s
   Rotor Speed:                         0.8769 rad/s
   Azimuth:                             0.4014 rad
   Wind Speed:                         10.0000 m/s
   Number of continuous states:         0
   Number of discrete states:           0
   Number of constraint states:         0
   Number of inputs:                  303
   Number of outputs:                   1
   Jacobians included in this file?    No

Order of inputs:
     Column   Operating Point                     Rotating Frame? Derivative Order Description
   ---------- ---------------                     --------------- ---------------- -----------
          1   -1.080E+01                                 F               0         X-component position of node 1 (hub), m
          2    0.000E+00                                 F               0         Y-component position of node 1 (hub), m
          3    1.497E+02                                 F               0         Z-component position of node 1 (hub), m
          4    1.781E+01                                 F               0         X-component position of node 2 (blade 1, node 1), m
          5   -1.016E+01                                 F               0         Y-component position of node 2 (blade 1, node 1), m
          6    1.544E+02                                 F               0         Z-component position of node 2 (blade 1, node 1), m
          7    1.809E+01                                 F               0         X-component position of node 3 (blade 1, node 2), m
          8   -1.074E+01                                 F               0         Y-component position of node 3 (blade 1, node 2), m
          9    1.556E+02                                 F               0         Z-component position of node 3 (blade 1, node 2), m
         10    2.196E+01                                 F               0         X-component position of node 4 (blade 1, node 3), m
         11   -1.863E+01                                 F               0         Y-component position of node 4 (blade 1, node 3), m
         12    1.715E+02                                 F               0         Z-component position of node 4 (blade 1, node 3), m
         13    2.278E+01                                 F               0         X-component position of node 5 (blade 1, node 4), m
         14   -2.031E+01                                 F               0         Y-component position of node 5 (blade 1, node 4), m
         15    1.749E+02                                 F               0         Z-component position of node 5 (blade 1, node 4), m
         16    2.361E+01                                 F               0         X-component position of node 6 (blade 1, node 5), m
         17   -2.199E+01                                 F               0         Y-component position of node 6 (blade 1, node 5), m
         18    1.783E+02                                 F               0         Z-component position of node 6 (blade 1, node 5), m
         19    2.443E+01                                 F               0         X-component position of node 7 (blade 1, node 6), m
         20   -2.367E+01                                 F               0         Y-component position of node 7 (blade 1, node 6), m
         21    1.817E+02                                 F               0         Z-component position of node 7 (blade 1, node 6), m
         22    2.525E+01                                 F               0         X-component position of node 8 (blade 1, node 7), m
         23   -2.535E+01                                 F               0         Y-component position of node 8 (blade 1, node 7), m
         24    1.850E+02                                 F               0         Z-component position of node 8 (blade 1, node 7), m
         25    2.608E+01                                 F               0         X-component position of node 9 (blade 1, node 8), m
         26   -2.703E+01                                 F               0         Y-component position of node 9 (blade 1, node 8), m
         27    1.884E+02                                 F               0         Z-component position of node 9 (blade 1, node 8), m
         28    2.690E+01                                 F               0         X-component position of node 10 (blade 1, node 9), m
         29   -2.872E+01                                 F               0         Y-component position of node 10 (blade 1, node 9), m
         30    1.918E+02                                 F               0         Z-component position of node 10 (blade 1, node 9), m
         31    2.773E+01                                 F               0         X-component position of node 11 (blade 1, node 10), m
         32   -3.040E+01                                 F               0         Y-component position of node 11 (blade 1, node 10), m
         33    1.952E+02                                 F               0         Z-component position of node 11 (blade 1, node 10), m
         34    2.855E+01                                 F               0         X-component position of node 12 (blade 1, node 11), m
         35   -3.208E+01                                 F               0         Y-component position of node 12 (blade 1, node 11), m
         36    1.986E+02                                 F               0         Z-component position of node 12 (blade 1, node 11), m
         37    2.937E+01                                 F               0         X-component position of node 13 (blade 1, node 12), m
         38   -3.376E+01                                 F               0         Y-component position of node 13 (blade 1, node 12), m
         39    2.020E+02                                 F               0         Z-component position of node 13 (blade 1, node 12), m
         40    3.020E+01                                 F               0         X-component position of node 14 (blade 1, node 13), m
         41   -3.544E+01                                 F               0         Y-component position of node 14 (blade 1, node 13), m
         42    2.053E+02                                 F               0         Z-component position of node 14 (blade 1, node 13), m
         43    3.102E+01                                 F               0         X-component position of node 15 (blade 1, node 14), m
         44   -3.712E+01                                 F               0         Y-component position of node 15 (blade 1, node 14), m
         45    2.087E+02                                 F               0         Z-component position of node 15 (blade 1, node 14), m
         46    3.185E+01                                 F               0         X-component position of node 16 (blade 1, node 15), m
         47   -3.880E+01                                 F               0         Y-component position of node 16 (blade 1, node 15), m
         48    2.121E+02                                 F               0         Z-component position of node 16 (blade 1, node 15), m
         49    3.267E+01                                 F               0         X-component position of node 17 (blade 1, node 16), m
         50   -4.048E+01                                 F               0         Y-component position of node 17 (blade 1, node 16), m
         51    2.155E+02                                 F               0         Z-component position of node 17 (blade 1, node 16), m
         52    3.349E+01                                 F               0         X-component position of node 18 (blade 1, node 17), m
         53   -4.216E+01                                 F               0         Y-component position of node 18 (blade 1, node 17), m
         54    2.189E+02                                 F               0         Z-component position of node 18 (blade 1, node 17), m
         55    3.432E+01                                 F               0         X-component position of node 19 (blade 1, node 18), m
         56   -4.384E+01                                 F               0         Y-component position of node 19 (blade 1, node 18), m
         57    2.223E+02                                 F               0         Z-component position of node 19 (blade 1, node 18), m
         58    3.514E+01                                 F               0         X-component position of node 20 (blade 1, node 19), m
         59   -4.552E+01                                 F               0         Y-component position of node 20 (blade 1, node 19), m
         60    2.257E+02                                 F               0         Z-component position of node 20 (blade 1, node 19), m
         61    3.597E+01                                 F               0         X-component position of node 21 (blade 1, node 20), m
         62   -4.720E+01                                 F               0         Y-component position of node 21 (blade 1, node 20), m
         63    2.290E+02                                 F               0         Z-component position of node 21 (blade 1, node 20), m
         64    3.679E+01                                 F               0         X-component position of node 22 (blade 1, node 21), m
         65   -4.889E+01                                 F               0         Y-component position of node 22 (blade 1, node 21), m
         66    2.324E+02                                 F               0         Z-component position of node 22 (blade 1, node 21), m
         67    3.761E+01                                 F               0         X-component position of node 23 (blade 1, node 22), m
         68   -5.057E+01                                 F               0         Y-component position of node 23 (blade 1, node 22), m
         69    2.358E+02                                 F               0         Z-component position of node 23 (blade 1, node 22), m
         70    3.844E+01                                 F               0         X-component position of node 24 (blade 1, node 23), m
         71   -5.225E+01                                 F               0         Y-component position of node 24 (blade 1, node 23), m
         72    2.392E+02                                 F               0         Z-component position of node 24 (blade 1, node 23), m
         73    3.926E+01                                 F               0         X-component position of node 25 (blade 1, node 24), m
         74   -5.393E+01                                 F               0         Y-component position of node 25 (blade 1, node 24), m
         75    2.426E+02                                 F               0         Z-component position of node 25 (blade 1, node 24), m
         76    4.009E+01                                 F               0         X-component position of node 26 (blade 1, node 25), m
         77   -5.561E+01                                 F               0         Y-component position of node 26 (blade 1, node 25), m
         78    2.460E+02                                 F               0         Z-component position of node 26 (blade 1, node 25), m
         79    4.091E+01                                 F               0         X-component position of node 27 (blade 1, node 26), m
         80   -5.729E+01                                 F               0         Y-component position of node 27 (blade 1, node 26), m
         81    2.493E+02                                 F               0         Z-component position of node 27 (blade 1, node 26), m
         82    4.173E+01                                 F               0         X-component position of node 28 (blade 1, node 27), m
         83   -5.897E+01                                 F               0         Y-component position of node 28 (blade 1, node 27), m
         84    2.527E+02                                 F               0         Z-component position of node 28 (blade 1, node 27), m
         85    4.243E+01                                 F               0         X-component position of node 29 (blade 1, node 28), m
         86   -6.040E+01                                 F               0         Y-component position of node 29 (blade 1, node 28), m
         87    2.556E+02                                 F               0         Z-component position of node 29 (blade 1, node 28), m
         88    1.562E+01                                 F               0         X-component position of node 30 (blade 2, node 1), m
         89   -1.087E+01                                 F               0         Y-component position of node 30 (blade 2, node 1), m
         90    1.451E+02                                 F               0         Z-component position of node 30 (blade 2, node 1), m
         91    1.538E+01                                 F               0         X-component position of node 31 (blade 2, node 2), m
         92   -1.162E+01                                 F               0         Y-component position of node 31 (blade 2, node 2), m
         93    1.441E+02                                 F               0         Z-component position of node 31 (blade 2, node 2), m
         94    1.209E+01                                 F               0         X-component position of node 32 (blade 2, node 3), m
         95   -2.183E+01                                 F               0         Y-component position of node 32 (blade 2, node 3), m
         96    1.294E+02                                 F               0         Z-component position of node 32 (blade 2, node 3), m
         97    1.139E+01                                 F               0         X-component position of node 33 (blade 2, node 4), m
         98   -2.401E+01                                 F               0         Y-component position of node 33 (blade 2, node 4), m
         99    1.263E+02                                 F               0         Z-component position of node 33 (blade 2, node 4), m
        100    1.069E+01                                 F               0         X-component position of node 34 (blade 2, node 5), m
        101   -2.618E+01                                 F               0         Y-component position of node 34 (blade 2, node 5), m
        102    1.232E+02                                 F               0         Z-component position of node 34 (blade 2, node 5), m
        103    9.987E+00                                 F               0         X-component position of node 35 (blade 2, node 6), m
        104   -2.836E+01                                 F               0         Y-component position of node 35 (blade 2, node 6), m
        105    1.201E+02                                 F               0         Z-component position of node 35 (blade 2, node 6), m
        106    9.286E+00                                 F               0         X-component position of node 36 (blade 2, node 7), m
        107   -3.054E+01                                 F               0         Y-component position of node 36 (blade 2, node 7), m
        108    1.169E+02                                 F               0         Z-component position of node 36 (blade 2, node 7), m
        109    8.585E+00                                 F               0         X-component position of node 37 (blade 2, node 8), m
        110   -3.271E+01                                 F               0         Y-component position of node 37 (blade 2, node 8), m
        111    1.138E+02                                 F               0         Z-component position of node 37 (blade 2, node 8), m
        112    7.884E+00                                 F               0         X-component position of node 38 (blade 2, node 9), m
        113   -3.489E+01                                 F               0         Y-component position of node 38 (blade 2, node 9), m
        114    1.107E+02                                 F               0         Z-component position of node 38 (blade 2, node 9), m
        115    7.183E+00                                 F               0         X-component position of node 39 (blade 2, node 10), m
        116   -3.706E+01                                 F               0         Y-component position of node 39 (blade 2, node 10), m
        117    1.076E+02                                 F               0         Z-component position of node 39 (blade 2, node 10), m
        118    6.482E+00                                 F               0         X-component position of node 40 (blade 2, node 11), m
        119   -3.924E+01                                 F               0         Y-component position of node 40 (blade 2, node 11), m
        120    1.045E+02                                 F               0         Z-component position of node 40 (blade 2, node 11), m
        121    5.781E+00                                 F               0         X-component position of node 41 (blade 2, node 12), m
        122   -4.141E+01                                 F               0         Y-component position of node 41 (blade 2, node 12), m
        123    1.013E+02                                 F               0         Z-component position of node 41 (blade 2, node 12), m
        124    5.080E+00                                 F               0         X-component position of node 42 (blade 2, node 13), m
        125   -4.359E+01                                 F               0         Y-component position of node 42 (blade 2, node 13), m
        126    9.821E+01                                 F               0         Z-component position of node 42 (blade 2, node 13), m
        127    4.379E+00                                 F               0         X-component position of node 43 (blade 2, node 14), m
        128   -4.577E+01                                 F               0         Y-component position of node 43 (blade 2, node 14), m
        129    9.510E+01                                 F               0         Z-component position of node 43 (blade 2, node 14), m
        130    3.678E+00                                 F               0         X-component position of node 44 (blade 2, node 15), m
        131   -4.794E+01                                 F               0         Y-component position of node 44 (blade 2, node 15), m
        132    9.197E+01                                 F               0         Z-component position of node 44 (blade 2, node 15), m
        133    2.977E+00                                 F               0         X-component position of node 45 (blade 2, node 16), m
        134   -5.012E+01                                 F               0         Y-component position of node 45 (blade 2, node 16), m
        135    8.886E+01                                 F               0         Z-component position of node 45 (blade 2, node 16), m
        136    2.276E+00                                 F               0         X-component position of node 46 (blade 2, node 17), m
        137   -5.229E+01                                 F               0         Y-component position of node 46 (blade 2, node 17), m
        138    8.574E+01                                 F               0         Z-component position of node 46 (blade 2, node 17), m
        139    1.575E+00                                 F               0         X-component position of node 47 (blade 2, node 18), m
        140   -5.447E+01                                 F               0         Y-component position of node 47 (blade 2, node 18), m
        141    8.262E+01                                 F               0         Z-component position of node 47 (blade 2, node 18), m
        142    8.743E-01                                 F               0         X-component position of node 48 (blade 2, node 19), m
        143   -5.665E+01                                 F               0         Y-component position of node 48 (blade 2, node 19), m
        144    7.950E+01                                 F               0         Z-component position of node 48 (blade 2, node 19), m
        145    1.734E-01                                 F               0         X-component position of node 49 (blade 2, node 20), m
        146   -5.882E+01                                 F               0         Y-component position of node 49 (blade 2, node 20), m
        147    7.638E+01                                 F               0         Z-component position of node 49 (blade 2, node 20), m
        148   -5.275E-01                                 F               0         X-component position of node 50 (blade 2, node 21), m
        149   -6.100E+01                                 F               0         Y-component position of node 50 (blade 2, node 21), m
        150    7.326E+01                                 F               0         Z-component position of node 50 (blade 2, node 21), m
        151   -1.228E+00                                 F               0         X-component position of node 51 (blade 2, node 22), m
        152   -6.317E+01                                 F               0         Y-component position of node 51 (blade 2, node 22), m
        153    7.014E+01                                 F               0         Z-component position of node 51 (blade 2, node 22), m
        154   -1.929E+00                                 F               0         X-component position of node 52 (blade 2, node 23), m
        155   -6.535E+01                                 F               0         Y-component position of node 52 (blade 2, node 23), m
        156    6.702E+01                                 F               0         Z-component position of node 52 (blade 2, node 23), m
        157   -2.630E+00                                 F               0         X-component position of node 53 (blade 2, node 24), m
        158   -6.752E+01                                 F               0         Y-component position of node 53 (blade 2, node 24), m
        159    6.390E+01                                 F               0         Z-component position of node 53 (blade 2, node 24), m
        160   -3.331E+00                                 F               0         X-component position of node 54 (blade 2, node 25), m
        161   -6.970E+01                                 F               0         Y-component position of node 54 (blade 2, node 25), m
        162    6.078E+01                                 F               0         Z-component position of node 54 (blade 2, node 25), m
        163   -4.032E+00                                 F               0         X-component position of node 55 (blade 2, node 26), m
        164   -7.188E+01                                 F               0         Y-component position of node 55 (blade 2, node 26), m
        165    5.766E+01                                 F               0         Z-component position of node 55 (blade 2, node 26), m
        166   -4.733E+00                                 F               0         X-component position of node 56 (blade 2, node 27), m
        167   -7.405E+01                                 F               0         Y-component position of node 56 (blade 2, node 27), m
        168    5.454E+01                                 F               0         Z-component position of node 56 (blade 2, node 27), m
        169   -5.327E+00                                 F               0         X-component position of node 57 (blade 2, node 28), m
        170   -7.590E+01                                 F               0         Y-component position of node 57 (blade 2, node 28), m
        171    5.189E+01                                 F               0         Z-component position of node 57 (blade 2, node 28), m
        172    1.645E+01                                 F               0         X-component position of node 58 (blade 3, node 1), m
        173   -2.229E+00                                 F               0         Y-component position of node 58 (blade 3, node 1), m
        174    1.492E+02                                 F               0         Z-component position of node 58 (blade 3, node 1), m
        175    1.641E+01                                 F               0         X-component position of node 59 (blade 3, node 2), m
        176   -8.980E-01                                 F               0         Y-component position of node 59 (blade 3, node 2), m
        177    1.491E+02                                 F               0         Z-component position of node 59 (blade 3, node 2), m
        178    1.583E+01                                 F               0         X-component position of node 60 (blade 3, node 3), m
        179    1.720E+01                                 F               0         Y-component position of node 60 (blade 3, node 3), m
        180    1.479E+02                                 F               0         Z-component position of node 60 (blade 3, node 3), m
        181    1.571E+01                                 F               0         X-component position of node 61 (blade 3, node 4), m
        182    2.106E+01                                 F               0         Y-component position of node 61 (blade 3, node 4), m
        183    1.476E+02                                 F               0         Z-component position of node 61 (blade 3, node 4), m
        184    1.558E+01                                 F               0         X-component position of node 62 (blade 3, node 5), m
        185    2.492E+01                                 F               0         Y-component position of node 62 (blade 3, node 5), m
        186    1.474E+02                                 F               0         Z-component position of node 62 (blade 3, node 5), m
        187    1.546E+01                                 F               0         X-component position of node 63 (blade 3, node 6), m
        188    2.877E+01                                 F               0         Y-component position of node 63 (blade 3, node 6), m
        189    1.471E+02                                 F               0         Z-component position of node 63 (blade 3, node 6), m
        190    1.534E+01                                 F               0         X-component position of node 64 (blade 3, node 7), m
        191    3.263E+01                                 F               0         Y-component position of node 64 (blade 3, node 7), m
        192    1.468E+02                                 F               0         Z-component position of node 64 (blade 3, node 7), m
        193    1.521E+01                                 F               0         X-component position of node 65 (blade 3, node 8), m
        194    3.649E+01                                 F               0         Y-component position of node 65 (blade 3, node 8), m
        195    1.466E+02                                 F               0         Z-component position of node 65 (blade 3, node 8), m
        196    1.509E+01                                 F               0         X-component position of node 66 (blade 3, node 9), m
        197    4.034E+01                                 F               0         Y-component position of node 66 (blade 3, node 9), m
        198    1.463E+02                                 F               0         Z-component position of node 66 (blade 3, node 9), m
        199    1.497E+01                                 F               0         X-component position of node 67 (blade 3, node 10), m
        200    4.420E+01                                 F               0         Y-component position of node 67 (blade 3, node 10), m
        201    1.460E+02                                 F               0         Z-component position of node 67 (blade 3, node 10), m
        202    1.484E+01                                 F               0         X-component position of node 68 (blade 3, node 11), m
        203    4.806E+01                                 F               0         Y-component position of node 68 (blade 3, node 11), m
        204    1.458E+02                                 F               0         Z-component position of node 68 (blade 3, node 11), m
        205    1.472E+01                                 F               0         X-component position of node 69 (blade 3, node 12), m
        206    5.191E+01                                 F               0         Y-component position of node 69 (blade 3, node 12), m
        207    1.455E+02                                 F               0         Z-component position of node 69 (blade 3, node 12), m
        208    1.460E+01                                 F               0         X-component position of node 70 (blade 3, node 13), m
        209    5.577E+01                                 F               0         Y-component position of node 70 (blade 3, node 13), m
        210    1.452E+02                                 F               0         Z-component position of node 70 (blade 3, node 13), m
        211    1.447E+01                                 F               0         X-component position of node 71 (blade 3, node 14), m