
Linearized model: Predictions were generated on 07-Feb-2024 at 11:38:03 using OpenFAST, compiled as a 64-bit application using single precision at commit v3.5.1
 linked with  NWTC Subroutine Library; ElastoDyn; InflowWind; AeroDyn; ServoDyn; HydroDyn; MAP++ (<1.20.10>, <Oct-20-2023>)

Description from the FAST input file: CCT-9 Campign 4 model. Input files to be run with OpenFAST 3.5.0. GitHub branch from Lu Wang (https://github.com/luwang00/openfast/tree/dev) compiled on March 7, 2023.

Simulation information:
   Simulation time:                  1008.7000 s
   Rotor Speed:                         1.0428 rad/s
   Azimuth:                             3.8190 rad
   Wind Speed:                         12.0000 m/s
   Number of continuous states:        22
   Number of discrete states:           0
   Number of constraint states:         0
   Number of inputs:                 3988
   Number of outputs:                  41
   Jacobians included in this file?    No

Order of continuous states:
   Row/Column Operating Point                     Rotating Frame? Derivative Order Description
   ---------- ---------------                     --------------- ---------------- -----------
          1    1.229E+01                                 F               2         ED Platform horizontal surge translation DOF (internal DOF index = DOF_Sg), m
          2   -2.197E-01                                 F               2         ED Platform horizontal sway translation DOF (internal DOF index = DOF_Sw), m
          3   -2.402E-01                                 F               2         ED Platform vertical heave translation DOF (internal DOF index = DOF_Hv), m
          4    5.334E-02                                 F               2         ED Platform roll tilt rotation DOF (internal DOF index = DOF_R), rad
          5    1.566E-01                                 F               2         ED Platform pitch tilt rotation DOF (internal DOF index = DOF_P), rad
          6    1.052E-02                                 F               2         ED Platform yaw rotation DOF (internal DOF index = DOF_Y), rad
          7    1.079E+00                                 F               2         ED 1st tower fore-aft bending mode DOF (internal DOF index = DOF_TFA1), m
          8    2.319E-01                                 F               2         ED 1st tower side-to-side bending mode DOF (internal DOF index = DOF_TSS1), m
          9    1.614E-03                                 F               2         ED 2nd tower fore-aft bending mode DOF (internal DOF index = DOF_TFA2), m
         10    9.717E-05                                 F               2         ED 2nd tower side-to-side bending mode DOF (internal DOF index = DOF_TSS2), m
         11    2.248E+00                                 F               2         ED Variable speed generator DOF (internal DOF index = DOF_GeAz), rad
         12    4.242E-04                                 F               2         ED First time derivative of Platform horizontal surge translation DOF (internal DOF index = DOF_Sg), m/s
         13   -9.613E-04                                 F               2         ED First time derivative of Platform horizontal sway translation DOF (internal DOF index = DOF_Sw), m/s
         14    5.294E-03                                 F               2         ED First time derivative of Platform vertical heave translation DOF (internal DOF index = DOF_Hv), m/s
         15   -3.995E-04                                 F               2         ED First time derivative of Platform roll tilt rotation DOF (internal DOF index = DOF_R), rad/s
         16   -9.756E-05                                 F               2         ED First time derivative of Platform pitch tilt rotation DOF (internal DOF index = DOF_P), rad/s
         17    4.805E-04                                 F               2         ED First time derivative of Platform yaw rotation DOF (internal DOF index = DOF_Y), rad/s
         18   -4.934E-04                                 F               2         ED First time derivative of 1st tower fore-aft bending mode DOF (internal DOF index = DOF_TFA1), m/s
         19   -4.509E-03                                 F               2         ED First time derivative of 1st tower side-to-side bending mode DOF (internal DOF index = DOF_TSS1), m/s
         20    3.055E-06                                 F               2         ED First time derivative of 2nd tower fore-aft bending mode DOF (internal DOF index = DOF_TFA2), m/s
         21    1.854E-07                                 F               2         ED First time derivative of 2nd tower side-to-side bending mode DOF (internal DOF index = DOF_TSS2), m/s
         22    1.043E+00                                 F               2         ED First time derivative of Variable speed generator DOF (internal DOF index = DOF_GeAz), rad/s

Order of continuous state derivatives:
   Row/Column Operating Point                     Rotating Frame? Derivative Order Description
   ---------- ---------------                     --------------- ---------------- -----------
          1    4.242E-04                                 F               2         First time derivative of ED Platform horizontal surge translation DOF (internal DOF index = DOF_Sg), m/s
          2   -9.613E-04                                 F               2         First time derivative of ED Platform horizontal sway translation DOF (internal DOF index = DOF_Sw), m/s
          3    5.294E-03                                 F               2         First time derivative of ED Platform vertical heave translation DOF (internal DOF index = DOF_Hv), m/s
          4   -3.995E-04                                 F               2         First time derivative of ED Platform roll tilt rotation DOF (internal DOF index = DOF_R), rad/s
          5   -9.756E-05                                 F               2         First time derivative of ED Platform pitch tilt rotation DOF (internal DOF index = DOF_P), rad/s
          6    4.805E-04                                 F               2         First time derivative of ED Platform yaw rotation DOF (internal DOF index = DOF_Y), rad/s
          7   -4.934E-04                                 F               2         First time derivative of ED 1st tower fore-aft bending mode DOF (internal DOF index = DOF_TFA1), m/s
          8   -4.509E-03                                 F               2         First time derivative of ED 1st tower side-to-side bending mode DOF (internal DOF index = DOF_TSS1), m/s
          9    3.055E-06                                 F               2         First time derivative of ED 2nd tower fore-aft bending mode DOF (internal DOF index = DOF_TFA2), m/s
         10    1.854E-07                                 F               2         First time derivative of ED 2nd tower side-to-side bending mode DOF (internal DOF index = DOF_TSS2), m/s
         11    1.043E+00                                 F               2         First time derivative of ED Variable speed generator DOF (internal DOF index = DOF_GeAz), rad/s
         12   -2.664E-04                                 F               2         First time derivative of ED First time derivative of Platform horizontal surge translation DOF (internal DOF index = DOF_Sg), m/s/s
         13   -2.986E-04                                 F               2         First time derivative of ED First time derivative of Platform horizontal sway translation DOF (internal DOF index = DOF_Sw), m/s/s
         14   -6.169E-04                                 F               2         First time derivative of ED First time derivative of Platform vertical heave translation DOF (internal DOF index = DOF_Hv), m/s/s
         15   -3.852E-04                                 F               2         First time derivative of ED First time derivative of Platform roll tilt rotation DOF (internal DOF index = DOF_R), rad/s/s
         16   -2.511E-05                                 F               2         First time derivative of ED First time derivative of Platform pitch tilt rotation DOF (internal DOF index = DOF_P), rad/s/s
         17    1.126E-04                                 F               2         First time derivative of ED First time derivative of Platform yaw rotation DOF (internal DOF index = DOF_Y), rad/s/s
         18    6.592E-03                                 F               2         First time derivative of ED First time derivative of 1st tower fore-aft bending mode DOF (internal DOF index = DOF_TFA1), m/s/s
         19   -3.545E-03                                 F               2         First time derivative of ED First time derivative of 1st tower side-to-side bending mode DOF (internal DOF index = DOF_TSS1), m/s/s
         20    2.874E-05                                 F               2         First time derivative of ED First time derivative of 2nd tower fore-aft bending mode DOF (internal DOF index = DOF_TFA2), m/s/s
         21   -3.496E-06                                 F               2         First time derivative of ED First time derivative of 2nd tower side-to-side bending mode DOF (internal DOF index = DOF_TSS2), m/s/s
         22    5.547E-04                                 F               2         First time derivative of ED First time derivative of Variable speed generator DOF (internal DOF index = DOF_GeAz), rad/s/s

Order of inputs:
     Column   Operating Point                     Rotating Frame? Derivative Order Description
   ---------- ---------------                     --------------- ---------------- -----------
          1   -1.080E+01                                 F               0         IfW X-component position of node 1 (hub), m
          2    0.000E+00                                 F               0         IfW Y-component position of node 1 (hub), m
          3    1.497E+02                                 F               0         IfW Z-component position of node 1 (hub), m
          4    2.480E+01                                 F               0         IfW X-component position of node 2 (blade 1, node 1), m
          5   -4.686E+00                                 F               0         IfW Y-component position of node 2 (blade 1, node 1), m
          6    1.451E+02                                 F               0         IfW Z-component position of node 2 (blade 1, node 1), m
          7    2.451E+01                                 F               0         IfW X-component position of node 3 (blade 1, node 2), m
          8   -3.796E+00                                 F               0         IfW Y-component position of node 3 (blade 1, node 2), m
          9    1.442E+02                                 F               0         IfW Z-component position of node 3 (blade 1, node 2), m
         10    2.063E+01                                 F               0         IfW X-component position of node 4 (blade 1, node 3), m
         11    8.307E+00                                 F               0         IfW Y-component position of node 4 (blade 1, node 3), m
         12    1.312E+02                                 F               0         IfW Z-component position of node 4 (blade 1, node 3), m
         13    1.981E+01                                 F               0         IfW X-component position of node 5 (blade 1, node 4), m
         14    1.089E+01                                 F               0         IfW Y-component position of node 5 (blade 1, node 4), m
         15    1.285E+02                                 F               0         IfW Z-component position of node 5 (blade 1, node 4), m
         16    1.898E+01                                 F               0         IfW X-component position of node 6 (blade 1, node 5), m
         17    1.346E+01                                 F               0         IfW Y-component position of node 6 (blade 1, node 5), m
         18    1.257E+02                                 F               0         IfW Z-component position of node 6 (blade 1, node 5), m
         19    1.815E+01                                 F               0         IfW X-component position of node 7 (blade 1, node 6), m
         20    1.604E+01                                 F               0         IfW Y-component position of node 7 (blade 1, node 6), m
         21    1.229E+02                                 F               0         IfW Z-component position of node 7 (blade 1, node 6), m
         22    1.733E+01                                 F               0         IfW X-component position of node 8 (blade 1, node 7), m
         23    1.862E+01                                 F               0         IfW Y-component position of node 8 (blade 1, node 7), m
         24    1.202E+02                                 F               0         IfW Z-component position of node 8 (blade 1, node 7), m
         25    1.650E+01                                 F               0         IfW X-component position of node 9 (blade 1, node 8), m
         26    2.120E+01                                 F               0         IfW Y-component position of node 9 (blade 1, node 8), m
         27    1.174E+02                                 F               0         IfW Z-component position of node 9 (blade 1, node 8), m
         28    1.567E+01                                 F               0         IfW X-component position of node 10 (blade 1, node 9), m
         29    2.378E+01                                 F               0         IfW Y-component position of node 10 (blade 1, node 9), m
         30    1.147E+02                                 F               0         IfW Z-component position of node 10 (blade 1, node 9), m
         31    1.485E+01                                 F               0         IfW X-component position of node 11 (blade 1, node 10), m
         32    2.636E+01                                 F               0         IfW Y-component position of node 11 (blade 1, node 10), m
         33    1.119E+02                                 F               0         IfW Z-component position of node 11 (blade 1, node 10), m
         34    1.402E+01                                 F               0         IfW X-component position of node 12 (blade 1, node 11), m
         35    2.894E+01                                 F               0         IfW Y-component position of node 12 (blade 1, node 11), m
         36    1.091E+02                                 F               0         IfW Z-component position of node 12 (blade 1, node 11), m
         37    1.320E+01                                 F               0         IfW X-component position of node 13 (blade 1, node 12), m
         38    3.151E+01                                 F               0         IfW Y-component position of node 13 (blade 1, node 12), m
         39    1.064E+02                                 F               0         IfW Z-component position of node 13 (blade 1, node 12), m
         40    1.237E+01                                 F               0         IfW X-component position of node 14 (blade 1, node 13), m
         41    3.409E+01                                 F               0         IfW Y-component position of node 14 (blade 1, node 13), m
         42    1.036E+02                                 F               0         IfW Z-component position of node 14 (blade 1, node 13), m
         43    1.154E+01                                 F               0         IfW X-component position of node 15 (blade 1, node 14), m
         44    3.667E+01                                 F               0         IfW Y-component position of node 15 (blade 1, node 14), m
         45    1.008E+02                                 F               0         IfW Z-component position of node 15 (blade 1, node 14), m
         46    1.072E+01                                 F               0         IfW X-component position of node 16 (blade 1, node 15), m
         47    3.925E+01                                 F               0         IfW Y-component position of node 16 (blade 1, node 15), m
         48    9.808E+01                                 F               0         IfW Z-component position of node 16 (blade 1, node 15), m
         49    9.890E+00                                 F               0         IfW X-component position of node 17 (blade 1, node 16), m
         50    4.183E+01                                 F               0         IfW Y-component position of node 17 (blade 1, node 16), m
         51    9.532E+01                                 F               0         IfW Z-component position of node 17 (blade 1, node 16), m
         52    9.064E+00                                 F               0         IfW X-component position of node 18 (blade 1, node 17), m
         53    4.441E+01                                 F               0         IfW Y-component position of node 18 (blade 1, node 17), m
         54    9.256E+01                                 F               0         IfW Z-component position of node 18 (blade 1, node 17), m
         55    8.237E+00                                 F               0         IfW X-component position of node 19 (blade 1, node 18), m
         56    4.699E+01                                 F               0         IfW Y-component position of node 19 (blade 1, node 18), m
         57    8.980E+01                                 F               0         IfW Z-component position of node 19 (blade 1, node 18), m
         58    7.411E+00                                 F               0         IfW X-component position of node 20 (blade 1, node 19), m
         59    4.957E+01                                 F               0         IfW Y-component position of node 20 (blade 1, node 19), m
         60    8.704E+01                                 F               0         IfW Z-component position of node 20 (blade 1, node 19), m
         61    6.584E+00                                 F               0         IfW X-component position of node 21 (blade 1, node 20), m
         62    5.214E+01                                 F               0         IfW Y-component position of node 21 (blade 1, node 20), m
         63    8.427E+01                                 F               0         IfW Z-component position of node 21 (blade 1, node 20), m
         64    5.758E+00                                 F               0         IfW X-component position of node 22 (blade 1, node 21), m
         65    5.472E+01                                 F               0         IfW Y-component position of node 22 (blade 1, node 21), m
         66    8.151E+01                                 F               0         IfW Z-component position of node 22 (blade 1, node 21), m
         67    4.932E+00                                 F               0         IfW X-component position of node 23 (blade 1, node 22), m
         68    5.730E+01                                 F               0         IfW Y-component position of node 23 (blade 1, node 22), m
         69    7.875E+01                                 F               0         IfW Z-component position of node 23 (blade 1, node 22), m
         70    4.105E+00                                 F               0         IfW X-component position of node 24 (blade 1, node 23), m
         71    5.988E+01                                 F               0         IfW Y-component position of node 24 (blade 1, node 23), m
         72    7.599E+01                                 F               0         IfW Z-component position of node 24 (blade 1, node 23), m
         73    3.279E+00                                 F               0         IfW X-component position of node 25 (blade 1, node 24), m
         74    6.246E+01                                 F               0         IfW Y-component position of node 25 (blade 1, node 24), m
         75    7.323E+01                                 F               0         IfW Z-component position of node 25 (blade 1, node 24), m
         76    2.452E+00                                 F               0         IfW X-component position of node 26 (blade 1, node 25), m
         77    6.504E+01                                 F               0         IfW Y-component position of node 26 (blade 1, node 25), m
         78    7.047E+01                                 F               0         IfW Z-component position of node 26 (blade 1, node 25), m
         79    1.626E+00                                 F               0         IfW X-component position of node 27 (blade 1, node 26), m
         80    6.762E+01                                 F               0         IfW Y-component position of node 27 (blade 1, node 26), m
         81    6.770E+01                                 F               0         IfW Z-component position of node 27 (blade 1, node 26), m
         82    7.995E-01                                 F               0         IfW X-component position of node 28 (blade 1, node 27), m
         83    7.019E+01                                 F               0         IfW Y-component position of node 28 (blade 1, node 27), m
         84    6.494E+01                                 F               0         IfW Z-component position of node 28 (blade 1, node 27), m
         85    9.895E-02                                 F               0         IfW X-component position of node 29 (blade 1, node 28), m
         86    7.238E+01                                 F               0         IfW Y-component position of node 29 (blade 1, node 28), m
         87    6.260E+01                                 F               0         IfW Z-component position of node 29 (blade 1, node 28), m
         88    2.736E+01                                 F               0         IfW X-component position of node 30 (blade 2, node 1), m
         89   -6.651E+00                                 F               0         IfW Y-component position of node 30 (blade 2, node 1), m
         90    1.542E+02                                 F               0         IfW Z-component position of node 30 (blade 2, node 1), m
         91    2.769E+01                                 F               0         IfW X-component position of node 31 (blade 2, node 2), m
         92   -6.235E+00                                 F               0         IfW Y-component position of node 31 (blade 2, node 2), m
         93    1.554E+02                                 F               0         IfW Z-component position of node 31 (blade 2, node 2), m
         94    3.222E+01                                 F               0         IfW X-component position of node 32 (blade 2, node 3), m
         95   -5.742E-01                                 F               0         IfW Y-component position of node 32 (blade 2, node 3), m
         96    1.720E+02                                 F               0         IfW Z-component position of node 32 (blade 2, node 3), m
         97    3.318E+01                                 F               0         IfW X-component position of node 33 (blade 2, node 4), m
         98    6.319E-01                                 F               0         IfW Y-component position of node 33 (blade 2, node 4), m
         99    1.756E+02                                 F               0         IfW Z-component position of node 33 (blade 2, node 4), m
        100    3.415E+01                                 F               0         IfW X-component position of node 34 (blade 2, node 5), m
        101    1.838E+00                                 F               0         IfW Y-component position of node 34 (blade 2, node 5), m
        102    1.791E+02                                 F               0         IfW Z-component position of node 34 (blade 2, node 5), m
        103    3.511E+01                                 F               0         IfW X-component position of node 35 (blade 2, node 6), m
        104    3.044E+00                                 F               0         IfW Y-component position of node 35 (blade 2, node 6), m
        105    1.827E+02                                 F               0         IfW Z-component position of node 35 (blade 2, node 6), m
        106    3.607E+01                                 F               0         IfW X-component position of node 36 (blade 2, node 7), m
        107    4.250E+00                                 F               0         IfW Y-component position of node 36 (blade 2, node 7), m
        108    1.862E+02                                 F               0         IfW Z-component position of node 36 (blade 2, node 7), m
        109    3.704E+01                                 F               0         IfW X-component position of node 37 (blade 2, node 8), m
        110    5.457E+00                                 F               0         IfW Y-component position of node 37 (blade 2, node 8), m
        111    1.898E+02                                 F               0         IfW Z-component position of node 37 (blade 2, node 8), m
        112    3.800E+01                                 F               0         IfW X-component position of node 38 (blade 2, node 9), m
        113    6.663E+00                                 F               0         IfW Y-component position of node 38 (blade 2, node 9), m
        114    1.933E+02                                 F               0         IfW Z-component position of node 38 (blade 2, node 9), m
        115    3.896E+01                                 F               0         IfW X-component position of node 39 (blade 2, node 10), m
        116    7.869E+00                                 F               0         IfW Y-component position of node 39 (blade 2, node 10), m
        117    1.969E+02                                 F               0         IfW Z-component position of node 39 (blade 2, node 10), m
        118    3.993E+01                                 F               0         IfW X-component position of node 40 (blade 2, node 11), m
        119    9.075E+00                                 F               0         IfW Y-component position of node 40 (blade 2, node 11), m
        120    2.004E+02                                 F               0         IfW Z-component position of node 40 (blade 2, node 11), m
        121    4.089E+01                                 F               0         IfW X-component position of node 41 (blade 2, node 12), m
        122    1.028E+01                                 F               0         IfW Y-component position of node 41 (blade 2, node 12), m
        123    2.040E+02                                 F               0         IfW Z-component position of node 41 (blade 2, node 12), m
        124    4.186E+01                                 F               0         IfW X-component position of node 42 (blade 2, node 13), m
        125    1.149E+01                                 F               0         IfW Y-component position of node 42 (blade 2, node 13), m
        126    2.075E+02                                 F               0         IfW Z-component position of node 42 (blade 2, node 13), m
        127    4.282E+01                                 F               0         IfW X-component position of node 43 (blade 2, node 14), m
        128    1.269E+01                                 F               0         IfW Y-component position of node 43 (blade 2, node 14), m
        129    2.110E+02                                 F               0         IfW Z-component position of node 43 (blade 2, node 14), m
        130    4.378E+01                                 F               0         IfW X-component position of node 44 (blade 2, node 15), m
        131    1.390E+01                                 F               0         IfW Y-component position of node 44 (blade 2, node 15), m
        132    2.146E+02                                 F               0         IfW Z-component position of node 44 (blade 2, node 15), m
        133    4.475E+01                                 F               0         IfW X-component position of node 45 (blade 2, node 16), m
        134    1.511E+01                                 F               0         IfW Y-component position of node 45 (blade 2, node 16), m
        135    2.181E+02                                 F               0         IfW Z-component position of node 45 (blade 2, node 16), m
        136    4.571E+01                                 F               0         IfW X-component position of node 46 (blade 2, node 17), m
        137    1.631E+01                                 F               0         IfW Y-component position of node 46 (blade 2, node 17), m
        138    2.217E+02                                 F               0         IfW Z-component position of node 46 (blade 2, node 17), m
        139    4.667E+01                                 F               0         IfW X-component position of node 47 (blade 2, node 18), m
        140    1.752E+01                                 F               0         IfW Y-component position of node 47 (blade 2, node 18), m
        141    2.252E+02                                 F               0         IfW Z-component position of node 47 (blade 2, node 18), m
        142    4.764E+01                                 F               0         IfW X-component position of node 48 (blade 2, node 19), m
        143    1.872E+01                                 F               0         IfW Y-component position of node 48 (blade 2, node 19), m
        144    2.288E+02                                 F               0         IfW Z-component position of node 48 (blade 2, node 19), m