
Linearized model: Predictions were generated on 07-Feb-2024 at 11:38:03 using OpenFAST, compiled as a 64-bit application using single precision at commit v3.5.1
 linked with  NWTC Subroutine Library; ElastoDyn; InflowWind; AeroDyn; ServoDyn; HydroDyn; MAP++ (<1.20.10>, <Oct-20-2023>)

Description from the FAST input file: CCT-9 Campign 4 model. Input files to be run with OpenFAST 3.5.0. GitHub branch from Lu Wang (https://github.com/luwang00/openfast/tree/dev) compiled on March 7, 2023.

Simulation information:
   Simulation time:                  1004.2250 s
   Rotor Speed:                         1.0403 rad/s
   Azimuth:                             5.4418 rad
   Wind Speed:                         12.0000 m/s
   Number of continuous states:         0
   Number of discrete states:           0
   Number of constraint states:         0
   Number of inputs:                  303
   Number of outputs:                   1
   Jacobians included in this file?    No

Order of inputs:
     Column   Operating Point                     Rotating Frame? Derivative Order Description
   ---------- ---------------                     --------------- ---------------- -----------
          1   -1.080E+01                                 F               0         X-component position of node 1 (hub), m
          2    0.000E+00                                 F               0         Y-component position of node 1 (hub), m
          3    1.497E+02                                 F               0         Z-component position of node 1 (hub), m
          4    2.702E+01                                 F               0         X-component position of node 2 (blade 1, node 1), m
          5   -4.127E+00                                 F               0         Y-component position of node 2 (blade 1, node 1), m
          6    1.529E+02                                 F               0         Z-component position of node 2 (blade 1, node 1), m
          7    2.726E+01                                 F               0         X-component position of node 3 (blade 1, node 2), m
          8   -3.178E+00                                 F               0         Y-component position of node 3 (blade 1, node 2), m
          9    1.538E+02                                 F               0         Z-component position of node 3 (blade 1, node 2), m
         10    3.045E+01                                 F               0         X-component position of node 4 (blade 1, node 3), m
         11    9.725E+00                                 F               0         Y-component position of node 4 (blade 1, node 3), m
         12    1.661E+02                                 F               0         Z-component position of node 4 (blade 1, node 3), m
         13    3.113E+01                                 F               0         X-component position of node 5 (blade 1, node 4), m
         14    1.247E+01                                 F               0         Y-component position of node 5 (blade 1, node 4), m
         15    1.688E+02                                 F               0         Z-component position of node 5 (blade 1, node 4), m
         16    3.181E+01                                 F               0         X-component position of node 6 (blade 1, node 5), m
         17    1.522E+01                                 F               0         Y-component position of node 6 (blade 1, node 5), m
         18    1.714E+02                                 F               0         Z-component position of node 6 (blade 1, node 5), m
         19    3.250E+01                                 F               0         X-component position of node 7 (blade 1, node 6), m
         20    1.797E+01                                 F               0         Y-component position of node 7 (blade 1, node 6), m
         21    1.740E+02                                 F               0         Z-component position of node 7 (blade 1, node 6), m
         22    3.318E+01                                 F               0         X-component position of node 8 (blade 1, node 7), m
         23    2.072E+01                                 F               0         Y-component position of node 8 (blade 1, node 7), m
         24    1.767E+02                                 F               0         Z-component position of node 8 (blade 1, node 7), m
         25    3.386E+01                                 F               0         X-component position of node 9 (blade 1, node 8), m
         26    2.347E+01                                 F               0         Y-component position of node 9 (blade 1, node 8), m
         27    1.793E+02                                 F               0         Z-component position of node 9 (blade 1, node 8), m
         28    3.454E+01                                 F               0         X-component position of node 10 (blade 1, node 9), m
         29    2.622E+01                                 F               0         Y-component position of node 10 (blade 1, node 9), m
         30    1.819E+02                                 F               0         Z-component position of node 10 (blade 1, node 9), m
         31    3.522E+01                                 F               0         X-component position of node 11 (blade 1, node 10), m
         32    2.897E+01                                 F               0         Y-component position of node 11 (blade 1, node 10), m
         33    1.846E+02                                 F               0         Z-component position of node 11 (blade 1, node 10), m
         34    3.590E+01                                 F               0         X-component position of node 12 (blade 1, node 11), m
         35    3.172E+01                                 F               0         Y-component position of node 12 (blade 1, node 11), m
         36    1.872E+02                                 F               0         Z-component position of node 12 (blade 1, node 11), m
         37    3.658E+01                                 F               0         X-component position of node 13 (blade 1, node 12), m
         38    3.447E+01                                 F               0         Y-component position of node 13 (blade 1, node 12), m
         39    1.898E+02                                 F               0         Z-component position of node 13 (blade 1, node 12), m
         40    3.726E+01                                 F               0         X-component position of node 14 (blade 1, node 13), m
         41    3.722E+01                                 F               0         Y-component position of node 14 (blade 1, node 13), m
         42    1.925E+02                                 F               0         Z-component position of node 14 (blade 1, node 13), m
         43    3.794E+01                                 F               0         X-component position of node 15 (blade 1, node 14), m
         44    3.996E+01                                 F               0         Y-component position of node 15 (blade 1, node 14), m
         45    1.951E+02                                 F               0         Z-component position of node 15 (blade 1, node 14), m
         46    3.862E+01                                 F               0         X-component position of node 16 (blade 1, node 15), m
         47    4.271E+01                                 F               0         Y-component position of node 16 (blade 1, node 15), m
         48    1.977E+02                                 F               0         Z-component position of node 16 (blade 1, node 15), m
         49    3.930E+01                                 F               0         X-component position of node 17 (blade 1, node 16), m
         50    4.546E+01                                 F               0         Y-component position of node 17 (blade 1, node 16), m
         51    2.004E+02                                 F               0         Z-component position of node 17 (blade 1, node 16), m
         52    3.998E+01                                 F               0         X-component position of node 18 (blade 1, node 17), m
         53    4.821E+01                                 F               0         Y-component position of node 18 (blade 1, node 17), m
         54    2.030E+02                                 F               0         Z-component position of node 18 (blade 1, node 17), m
         55    4.066E+01                                 F               0         X-component position of node 19 (blade 1, node 18), m
         56    5.096E+01                                 F               0         Y-component position of node 19 (blade 1, node 18), m
         57    2.056E+02                                 F               0         Z-component position of node 19 (blade 1, node 18), m
         58    4.135E+01                                 F               0         X-component position of node 20 (blade 1, node 19), m
         59    5.371E+01                                 F               0         Y-component position of node 20 (blade 1, node 19), m
         60    2.083E+02                                 F               0         Z-component position of node 20 (blade 1, node 19), m
         61    4.203E+01                                 F               0         X-component position of node 21 (blade 1, node 20), m
         62    5.646E+01                                 F               0         Y-component position of node 21 (blade 1, node 20), m
         63    2.109E+02                                 F               0         Z-component position of node 21 (blade 1, node 20), m
         64    4.271E+01                                 F               0         X-component position of node 22 (blade 1, node 21), m
         65    5.921E+01                                 F               0         Y-component position of node 22 (blade 1, node 21), m
         66    2.135E+02                                 F               0         Z-component position of node 22 (blade 1, node 21), m
         67    4.339E+01                                 F               0         X-component position of node 23 (blade 1, node 22), m
         68    6.196E+01                                 F               0         Y-component position of node 23 (blade 1, node 22), m
         69    2.162E+02                                 F               0         Z-component position of node 23 (blade 1, node 22), m
         70    4.407E+01                                 F               0         X-component position of node 24 (blade 1, node 23), m
         71    6.471E+01                                 F               0         Y-component position of node 24 (blade 1, node 23), m
         72    2.188E+02                                 F               0         Z-component position of node 24 (blade 1, node 23), m
         73    4.475E+01                                 F               0         X-component position of node 25 (blade 1, node 24), m
         74    6.746E+01                                 F               0         Y-component position of node 25 (blade 1, node 24), m
         75    2.214E+02                                 F               0         Z-component position of node 25 (blade 1, node 24), m
         76    4.543E+01                                 F               0         X-component position of node 26 (blade 1, node 25), m
         77    7.020E+01                                 F               0         Y-component position of node 26 (blade 1, node 25), m
         78    2.241E+02                                 F               0         Z-component position of node 26 (blade 1, node 25), m
         79    4.611E+01                                 F               0         X-component position of node 27 (blade 1, node 26), m
         80    7.295E+01                                 F               0         Y-component position of node 27 (blade 1, node 26), m
         81    2.267E+02                                 F               0         Z-component position of node 27 (blade 1, node 26), m
         82    4.679E+01                                 F               0         X-component position of node 28 (blade 1, node 27), m
         83    7.570E+01                                 F               0         Y-component position of node 28 (blade 1, node 27), m
         84    2.293E+02                                 F               0         Z-component position of node 28 (blade 1, node 27), m
         85    4.737E+01                                 F               0         X-component position of node 29 (blade 1, node 28), m
         86    7.803E+01                                 F               0         Y-component position of node 29 (blade 1, node 28), m
         87    2.316E+02                                 F               0         Z-component position of node 29 (blade 1, node 28), m
         88    2.654E+01                                 F               0         X-component position of node 30 (blade 2, node 1), m
         89   -1.341E+01                                 F               0         Y-component position of node 30 (blade 2, node 1), m
         90    1.505E+02                                 F               0         Z-component position of node 30 (blade 2, node 1), m
         91    2.666E+01                                 F               0         X-component position of node 31 (blade 2, node 2), m
         92   -1.469E+01                                 F               0         Y-component position of node 31 (blade 2, node 2), m
         93    1.508E+02                                 F               0         Z-component position of node 31 (blade 2, node 2), m
         94    2.828E+01                                 F               0         X-component position of node 32 (blade 2, node 3), m
         95   -3.220E+01                                 F               0         Y-component position of node 32 (blade 2, node 3), m
         96    1.553E+02                                 F               0         Z-component position of node 32 (blade 2, node 3), m
         97    2.863E+01                                 F               0         X-component position of node 33 (blade 2, node 4), m
         98   -3.593E+01                                 F               0         Y-component position of node 33 (blade 2, node 4), m
         99    1.563E+02                                 F               0         Z-component position of node 33 (blade 2, node 4), m
        100    2.897E+01                                 F               0         X-component position of node 34 (blade 2, node 5), m
        101   -3.966E+01                                 F               0         Y-component position of node 34 (blade 2, node 5), m
        102    1.572E+02                                 F               0         Z-component position of node 34 (blade 2, node 5), m
        103    2.932E+01                                 F               0         X-component position of node 35 (blade 2, node 6), m
        104   -4.339E+01                                 F               0         Y-component position of node 35 (blade 2, node 6), m
        105    1.582E+02                                 F               0         Z-component position of node 35 (blade 2, node 6), m
        106    2.966E+01                                 F               0         X-component position of node 36 (blade 2, node 7), m
        107   -4.712E+01                                 F               0         Y-component position of node 36 (blade 2, node 7), m
        108    1.592E+02                                 F               0         Z-component position of node 36 (blade 2, node 7), m
        109    3.001E+01                                 F               0         X-component position of node 37 (blade 2, node 8), m
        110   -5.085E+01                                 F               0         Y-component position of node 37 (blade 2, node 8), m
        111    1.601E+02                                 F               0         Z-component position of node 37 (blade 2, node 8), m
        112    3.035E+01                                 F               0         X-component position of node 38 (blade 2, node 9), m
        113   -5.458E+01                                 F               0         Y-component position of node 38 (blade 2, node 9), m
        114    1.611E+02                                 F               0         Z-component position of node 38 (blade 2, node 9), m
        115    3.070E+01                                 F               0         X-component position of node 39 (blade 2, node 10), m
        116   -5.831E+01                                 F               0         Y-component position of node 39 (blade 2, node 10), m
        117    1.621E+02                                 F               0         Z-component position of node 39 (blade 2, node 10), m
        118    3.105E+01                                 F               0         X-component position of node 40 (blade 2, node 11), m
        119   -6.204E+01                                 F               0         Y-component position of node 40 (blade 2, node 11), m
        120    1.630E+02                                 F               0         Z-component position of node 40 (blade 2, node 11), m
        121    3.139E+01                                 F               0         X-component position of node 41 (blade 2, node 12), m
        122   -6.577E+01                                 F               0         Y-component position of node 41 (blade 2, node 12), m
        123    1.640E+02                                 F               0         Z-component position of node 41 (blade 2, node 12), m
        124    3.174E+01                                 F               0         X-component position of node 42 (blade 2, node 13), m
        125   -6.950E+01                                 F               0         Y-component position of node 42 (blade 2, node 13), m
        126    1.650E+02                                 F               0         Z-component position of node 42 (blade 2, node 13), m
        127    3.208E+01                                 F               0         X-component position of node 43 (blade 2, node 14), m
        128   -7.323E+01                                 F               0         Y-component position of node 43 (blade 2, node 14), m
        129    1.659E+02                                 F               0         Z-component position of node 43 (blade 2, node 14), m
        130    3.243E+01                                 F               0         X-component position of node 44 (blade 2, node 15), m
        131   -7.696E+01                                 F               0         Y-component position of node 44 (blade 2, node 15), m
        132    1.669E+02                                 F               0         Z-component position of node 44 (blade 2, node 15), m
        133    3.277E+01                                 F               0         X-component position of node 45 (blade 2, node 16), m
        134   -8.069E+01                                 F               0         Y-component position of node 45 (blade 2, node 16), m
        135    1.679E+02                                 F               0         Z-component position of node 45 (blade 2, node 16), m
        136    3.312E+01                                 F               0         X-component position of node 46 (blade 2, node 17), m
        137   -8.442E+01                                 F               0         Y-component position of node 46 (blade 2, node 17), m
        138    1.688E+02                                 F               0         Z-component position of node 46 (blade 2, node 17), m
        139    3.346E+01                                 F               0         X-component position of node 47 (blade 2, node 18), m
        140   -8.814E+01                                 F               0         Y-component position of node 47 (blade 2, node 18), m
        141    1.698E+02                                 F               0         Z-component position of node 47 (blade 2, node 18), m
        142    3.381E+01                                 F               0         X-component position of node 48 (blade 2, node 19), m
        143   -9.187E+01                                 F               0         Y-component position of node 48 (blade 2, node 19), m
        144    1.707E+02                                 F               0         Z-component position of node 48 (blade 2, node 19), m
        145    3.415E+01                                 F               0         X-component position of node 49 (blade 2, node 20), m
        146   -9.560E+01                                 F               0         Y-component position of node 49 (blade 2, node 20), m
        147    1.717E+02                                 F               0         Z-component position of node 49 (blade 2, node 20), m
        148    3.450E+01                                 F               0         X-component position of node 50 (blade 2, node 21), m
        149   -9.933E+01                                 F               0         Y-component position of node 50 (blade 2, node 21), m
        150    1.727E+02                                 F               0         Z-component position of node 50 (blade 2, node 21), m
        151    3.484E+01                                 F               0         X-component position of node 51 (blade 2, node 22), m
        152   -1.031E+02                                 F               0         Y-component position of node 51 (blade 2, node 22), m
        153    1.736E+02                                 F               0         Z-component position of node 51 (blade 2, node 22), m
        154    3.519E+01                                 F               0         X-component position of node 52 (blade 2, node 23), m
        155   -1.068E+02                                 F               0         Y-component position of node 52 (blade 2, node 23), m
        156    1.746E+02                                 F               0         Z-component position of node 52 (blade 2, node 23), m
        157    3.554E+01                                 F               0         X-component position of node 53 (blade 2, node 24), m
        158   -1.105E+02                                 F               0         Y-component position of node 53 (blade 2, node 24), m
        159    1.756E+02                                 F               0         Z-component position of node 53 (blade 2, node 24), m
        160    3.588E+01                                 F               0         X-component position of node 54 (blade 2, node 25), m
        161   -1.143E+02                                 F               0         Y-component position of node 54 (blade 2, node 25), m
        162    1.765E+02                                 F               0         Z-component position of node 54 (blade 2, node 25), m
        163    3.623E+01                                 F               0         X-component position of node 55 (blade 2, node 26), m
        164   -1.180E+02                                 F               0         Y-component position of node 55 (blade 2, node 26), m
        165    1.775E+02                                 F               0         Z-component position of node 55 (blade 2, node 26), m
        166    3.657E+01                                 F               0         X-component position of node 56 (blade 2, node 27), m
        167   -1.217E+02                                 F               0         Y-component position of node 56 (blade 2, node 27), m
        168    1.785E+02                                 F               0         Z-component position of node 56 (blade 2, node 27), m
        169    3.686E+01                                 F               0         X-component position of node 57 (blade 2, node 28), m
        170   -1.249E+02                                 F               0         Y-component position of node 57 (blade 2, node 28), m
        171    1.793E+02                                 F               0         Z-component position of node 57 (blade 2, node 28), m
        172    2.458E+01                                 F               0         X-component position of node 58 (blade 3, node 1), m
        173   -6.660E+00                                 F               0         Y-component position of node 58 (blade 3, node 1), m
        174    1.439E+02                                 F               0         Z-component position of node 58 (blade 3, node 1), m
        175    2.422E+01                                 F               0         X-component position of node 59 (blade 3, node 2), m
        176   -6.321E+00                                 F               0         Y-component position of node 59 (blade 3, node 2), m
        177    1.427E+02                                 F               0         Z-component position of node 59 (blade 3, node 2), m
        178    1.941E+01                                 F               0         X-component position of node 60 (blade 3, node 3), m
        179   -1.719E+00                                 F               0         Y-component position of node 60 (blade 3, node 3), m
        180    1.258E+02                                 F               0         Z-component position of node 60 (blade 3, node 3), m
        181    1.838E+01                                 F               0         X-component position of node 61 (blade 3, node 4), m
        182   -7.386E-01                                 F               0         Y-component position of node 61 (blade 3, node 4), m
        183    1.222E+02                                 F               0         Z-component position of node 61 (blade 3, node 4), m
        184    1.735E+01                                 F               0         X-component position of node 62 (blade 3, node 5), m
        185    2.422E-01                                 F               0         Y-component position of node 62 (blade 3, node 5), m
        186    1.186E+02                                 F               0         Z-component position of node 62 (blade 3, node 5), m
        187    1.633E+01                                 F               0         X-component position of node 63 (blade 3, node 6), m
        188    1.223E+00                                 F               0         Y-component position of node 63 (blade 3, node 6), m
        189    1.150E+02                                 F               0         Z-component position of node 63 (blade 3, node 6), m
        190    1.530E+01                                 F               0         X-component position of node 64 (blade 3, node 7), m
        191    2.203E+00                                 F               0         Y-component position of node 64 (blade 3, node 7), m
        192    1.114E+02                                 F               0         Z-component position of node 64 (blade 3, node 7), m
        193    1.428E+01                                 F               0         X-component position of node 65 (blade 3, node 8), m
        194    3.184E+00                                 F               0         Y-component position of node 65 (blade 3, node 8), m
        195    1.078E+02                                 F               0         Z-component position of node 65 (blade 3, node 8), m
        196    1.325E+01                                 F               0         X-component position of node 66 (blade 3, node 9), m
        197    4.165E+00                                 F               0         Y-component position of node 66 (blade 3, node 9), m
        198    1.042E+02                                 F               0         Z-component position of node 66 (blade 3, node 9), m
        199    1.222E+01                                 F               0         X-component position of node 67 (blade 3, node 10), m
        200    5.145E+00                                 F               0         Y-component position of node 67 (blade 3, node 10), m
        201    1.006E+02                                 F               0         Z-component position of node 67 (blade 3, node 10), m
        202    1.120E+01                                 F               0         X-component position of node 68 (blade 3, node 11), m
        203    6.126E+00                                 F               0         Y-component position of node 68 (blade 3, node 11), m
        204    9.702E+01                                 F               0         Z-component position of node 68 (blade 3, node 11), m
        205    1.017E+01                                 F               0         X-component position of node 69 (blade 3, node 12), m
        206    7.106E+00                                 F               0         Y-component position of node 69 (blade 3, node 12), m
        207    9.342E+01                                 F               0         Z-component position of node 69 (blade 3, node 12), m
        208    9.145E+00                                 F               0         X-component position of node 70 (blade 3, node 13), m
        209    8.087E+00                                 F               0         Y-component position of node 70 (blade 3, node 13), m
        210    8.982E+01                                 F               0         Z-component position of node 70 (blade 3, node 13), m
        211    8.119E+00                                 F               0         X-component position of node 71 (blade 3, node 14), m