
Linearized model: Predictions were generated on 13-Feb-2024 at 11:29:37 using OpenFAST, compiled as a 64-bit application using single precision at commit v3.5.1
 linked with  NWTC Subroutine Library; ElastoDyn; InflowWind; AeroDyn; ServoDyn; HydroDyn; MAP++ (<1.20.10>, <Oct-20-2023>)

Description from the FAST input file: CCT-9 Campign 4 model. Input files to be run with OpenFAST 3.5.0. GitHub branch from Lu Wang (https://github.com/luwang00/openfast/tree/dev) compiled on March 7, 2023.

Simulation information:
   Simulation time:                  1215.4750 s
   Rotor Speed:                         0.7918 rad/s
   Azimuth:                             3.6810 rad
   Wind Speed:                         16.0000 m/s
   Number of continuous states:         0
   Number of discrete states:           0
   Number of constraint states:         0
   Number of inputs:                 1746
   Number of outputs:                   4
   Jacobians included in this file?    No

Order of inputs:
     Column   Operating Point                                                   Rotating Frame? Derivative Order Description
   ---------- ---------------                                                   --------------- ---------------- -----------
          1     1.07029075623E+001                                                     F               0         Tower X translation displacement, node 1, m
          2    -1.55881476402E+000                                                     F               0         Tower Y translation displacement, node 1, m
          3    -2.78564691544E-001                                                     F               0         Tower Z translation displacement, node 1, m
          4     1.20889368057E+001                                                     F               0         Tower X translation displacement, node 2, m
          5    -2.19224238396E+000                                                     F               0         Tower Y translation displacement, node 2, m
          6    -3.72908771038E-001                                                     F               0         Tower Z translation displacement, node 2, m
          7     1.34749670029E+001                                                     F               0         Tower X translation displacement, node 3, m
          8    -2.82567024231E+000                                                     F               0         Tower Y translation displacement, node 3, m
          9    -4.67250764370E-001                                                     F               0         Tower Z translation displacement, node 3, m
         10     1.48609962463E+001                                                     F               0         Tower X translation displacement, node 4, m
         11    -3.45909786224E+000                                                     F               0         Tower Y translation displacement, node 4, m
         12    -5.61592936516E-001                                                     F               0         Tower Z translation displacement, node 4, m
         13     1.62470264435E+001                                                     F               0         Tower X translation displacement, node 5, m
         14    -4.09252595901E+000                                                     F               0         Tower Y translation displacement, node 5, m
         15    -6.55932307243E-001                                                     F               0         Tower Z translation displacement, node 5, m
         16     1.76330547333E+001                                                     F               0         Tower X translation displacement, node 6, m
         17    -4.72595310211E+000                                                     F               0         Tower Y translation displacement, node 6, m
         18    -7.50282227993E-001                                                     F               0         Tower Z translation displacement, node 6, m
         19     1.90190868378E+001                                                     F               0         Tower X translation displacement, node 7, m
         20    -5.35938119888E+000                                                     F               0         Tower Y translation displacement, node 7, m
         21    -8.44618201256E-001                                                     F               0         Tower Z translation displacement, node 7, m
         22     2.04051151276E+001                                                     F               0         Tower X translation displacement, node 8, m
         23    -5.99280834198E+000                                                     F               0         Tower Y translation displacement, node 8, m
         24    -9.38966214657E-001                                                     F               0         Tower Z translation displacement, node 8, m
         25     2.17911453247E+001                                                     F               0         Tower X translation displacement, node 9, m
         26    -6.62623691559E+000                                                     F               0         Tower Y translation displacement, node 9, m
         27    -1.03330528736E+000                                                     F               0         Tower Z translation displacement, node 9, m
         28     2.31771755219E+001                                                     F               0         Tower X translation displacement, node 10, m
         29    -7.25966405869E+000                                                     F               0         Tower Y translation displacement, node 10, m
         30    -1.12765026093E+000                                                     F               0         Tower Z translation displacement, node 10, m
         31     2.45632038116E+001                                                     F               0         Tower X translation displacement, node 11, m
         32    -7.89309167862E+000                                                     F               0         Tower Y translation displacement, node 11, m
         33    -1.22199225426E+000                                                     F               0         Tower Z translation displacement, node 11, m
         34     9.93684649467E-001,   3.41117009521E-003,  -1.12156771123E-001         F               0         Tower X orientation angle, node 1, rad
         35     2.36503616907E-003,   9.98679041862E-001,   5.13278320432E-002         F               0         Tower Y orientation angle, node 1, rad
         36     1.12183712423E-001,  -5.12689352036E-002,   9.92363989353E-001         F               0         Tower Z orientation angle, node 1, rad
         37     9.93684649467E-001,   3.41117009521E-003,  -1.12156771123E-001         F               0         Tower X orientation angle, node 2, rad
         38     2.36503616907E-003,   9.98679041862E-001,   5.13278320432E-002         F               0         Tower Y orientation angle, node 2, rad
         39     1.12183712423E-001,  -5.12689352036E-002,   9.92363989353E-001         F               0         Tower Z orientation angle, node 2, rad
         40     9.93684649467E-001,   3.41117009521E-003,  -1.12156771123E-001         F               0         Tower X orientation angle, node 3, rad
         41     2.36503616907E-003,   9.98679041862E-001,   5.13278320432E-002         F               0         Tower Y orientation angle, node 3, rad
         42     1.12183712423E-001,  -5.12689352036E-002,   9.92363989353E-001         F               0         Tower Z orientation angle, node 3, rad
         43     9.93684649467E-001,   3.41117009521E-003,  -1.12156771123E-001         F               0         Tower X orientation angle, node 4, rad
         44     2.36503616907E-003,   9.98679041862E-001,   5.13278320432E-002         F               0         Tower Y orientation angle, node 4, rad
         45     1.12183712423E-001,  -5.12689352036E-002,   9.92363989353E-001         F               0         Tower Z orientation angle, node 4, rad
         46     9.93684649467E-001,   3.41117009521E-003,  -1.12156771123E-001         F               0         Tower X orientation angle, node 5, rad
         47     2.36503616907E-003,   9.98679041862E-001,   5.13278320432E-002         F               0         Tower Y orientation angle, node 5, rad
         48     1.12183712423E-001,  -5.12689352036E-002,   9.92363989353E-001         F               0         Tower Z orientation angle, node 5, rad
         49     9.93684649467E-001,   3.41117009521E-003,  -1.12156771123E-001         F               0         Tower X orientation angle, node 6, rad
         50     2.36503616907E-003,   9.98679041862E-001,   5.13278320432E-002         F               0         Tower Y orientation angle, node 6, rad
         51     1.12183712423E-001,  -5.12689352036E-002,   9.92363989353E-001         F               0         Tower Z orientation angle, node 6, rad
         52     9.93684649467E-001,   3.41117009521E-003,  -1.12156771123E-001         F               0         Tower X orientation angle, node 7, rad
         53     2.36503616907E-003,   9.98679041862E-001,   5.13278320432E-002         F               0         Tower Y orientation angle, node 7, rad
         54     1.12183712423E-001,  -5.12689352036E-002,   9.92363989353E-001         F               0         Tower Z orientation angle, node 7, rad
         55     9.93684649467E-001,   3.41116986237E-003,  -1.12156771123E-001         F               0         Tower X orientation angle, node 8, rad
         56     2.36503616907E-003,   9.98679041862E-001,   5.13278320432E-002         F               0         Tower Y orientation angle, node 8, rad
         57     1.12183704972E-001,  -5.12689352036E-002,   9.92363989353E-001         F               0         Tower Z orientation angle, node 8, rad
         58     9.93684649467E-001,   3.41117032804E-003,  -1.12156778574E-001         F               0         Tower X orientation angle, node 9, rad
         59     2.36503640190E-003,   9.98679041862E-001,   5.13278357685E-002         F               0         Tower Y orientation angle, node 9, rad
         60     1.12183712423E-001,  -5.12689389288E-002,   9.92363989353E-001         F               0         Tower Z orientation angle, node 9, rad
         61     9.93684649467E-001,   3.41117009521E-003,  -1.12156771123E-001         F               0         Tower X orientation angle, node 10, rad
         62     2.36503616907E-003,   9.98679041862E-001,   5.13278320432E-002         F               0         Tower Y orientation angle, node 10, rad
         63     1.12183712423E-001,  -5.12689352036E-002,   9.92363989353E-001         F               0         Tower Z orientation angle, node 10, rad
         64     9.93684649467E-001,   3.41117009521E-003,  -1.12156771123E-001         F               0         Tower X orientation angle, node 11, rad
         65     2.36503616907E-003,   9.98679041862E-001,   5.13278320432E-002         F               0         Tower Y orientation angle, node 11, rad
         66     1.12183712423E-001,  -5.12689352036E-002,   9.92363989353E-001         F               0         Tower Z orientation angle, node 11, rad
         67    -1.93543237401E-004                                                     F               0         Tower X translation velocity, node 1, m/s
         68    -7.55239743739E-004                                                     F               0         Tower Y translation velocity, node 1, m/s
         69    -5.81600703299E-003                                                     F               0         Tower Z translation velocity, node 1, m/s
         70    -2.80567153823E-004                                                     F               0         Tower X translation velocity, node 2, m/s
         71    -1.16549618542E-003                                                     F               0         Tower Y translation velocity, node 2, m/s
         72    -5.82736451179E-003                                                     F               0         Tower Z translation velocity, node 2, m/s
         73    -3.67591099348E-004                                                     F               0         Tower X translation velocity, node 3, m/s
         74    -1.57575262710E-003                                                     F               0         Tower Y translation velocity, node 3, m/s
         75    -5.83872152492E-003                                                     F               0         Tower Z translation velocity, node 3, m/s
         76    -4.54615015769E-004                                                     F               0         Tower X translation velocity, node 4, m/s
         77    -1.98600883596E-003                                                     F               0         Tower Y translation velocity, node 4, m/s
         78    -5.85007946938E-003                                                     F               0         Tower Z translation velocity, node 4, m/s
         79    -5.41639048606E-004                                                     F               0         Tower X translation velocity, node 5, m/s
         80    -2.39626551047E-003                                                     F               0         Tower Y translation velocity, node 5, m/s
         81    -5.86143694818E-003                                                     F               0         Tower Z translation velocity, node 5, m/s
         82    -6.28662819508E-004                                                     F               0         Tower X translation velocity, node 6, m/s
         83    -2.80652171932E-003                                                     F               0         Tower Y translation velocity, node 6, m/s
         84    -5.87279442698E-003                                                     F               0         Tower Z translation velocity, node 6, m/s
         85    -7.15686939657E-004                                                     F               0         Tower X translation velocity, node 7, m/s
         86    -3.21677862667E-003                                                     F               0         Tower Y translation velocity, node 7, m/s
         87    -5.88415144011E-003                                                     F               0         Tower Z translation velocity, node 7, m/s
         88    -8.02710710559E-004                                                     F               0         Tower X translation velocity, node 8, m/s
         89    -3.62703460269E-003                                                     F               0         Tower Y translation velocity, node 8, m/s
         90    -5.89550938457E-003                                                     F               0         Tower Z translation velocity, node 8, m/s
         91    -8.89734830707E-004                                                     F               0         Tower X translation velocity, node 9, m/s
         92    -4.03729127720E-003                                                     F               0         Tower Y translation velocity, node 9, m/s
         93    -5.90686686337E-003                                                     F               0         Tower Z translation velocity, node 9, m/s
         94    -9.76758659817E-004                                                     F               0         Tower X translation velocity, node 10, m/s
         95    -4.44754771888E-003                                                     F               0         Tower Y translation velocity, node 10, m/s
         96    -5.91822434217E-003                                                     F               0         Tower Z translation velocity, node 10, m/s
         97    -1.06378272176E-003                                                     F               0         Tower X translation velocity, node 11, m/s
         98    -4.85780462623E-003                                                     F               0         Tower Y translation velocity, node 11, m/s
         99    -5.92958182096E-003                                                     F               0         Tower Z translation velocity, node 11, m/s
        100     2.55120754242E+001                                                     F               0         Hub X translation displacement, node 1, m
        101    -8.33240413666E+000                                                     F               0         Hub Y translation displacement, node 1, m
        102    -7.05808624625E-002                                                     F               0         Hub Z translation displacement, node 1, m
        103     9.76514756680E-001,   8.75154696405E-003,  -2.15272650123E-001         F               0         Hub X orientation angle, node 1, rad
        104    -1.12690933049E-001,  -8.30852687359E-001,  -5.44962882996E-001         F               0         Hub Y orientation angle, node 1, rad
        105    -1.83629140258E-001,   5.56423544884E-001,  -8.10353696346E-001         F               0         Hub Z orientation angle, node 1, rad
        106     7.73242294788E-001                                                     F               0         Hub X rotation velocity, node 1, rad/s
        107     6.92264176905E-003                                                     F               0         Hub Y rotation velocity, node 1, rad/s
        108    -1.70458242297E-001                                                     F               0         Hub Z rotation velocity, node 1, rad/s
        109     9.82656538486E-001,   1.25558033586E-001,  -1.36460050941E-001         F               0         Blade root 1 X orientation angle, node 1, rad
        110     2.58168298751E-002,  -8.21357429028E-001,  -5.69829344749E-001         F               0         Blade root 1 Y orientation angle, node 1, rad
        111    -1.83629140258E-001,   5.56423544884E-001,  -8.10353696346E-001         F               0         Blade root 1 Z orientation angle, node 1, rad
        112     9.81248378754E-001,  -1.17578044534E-001,  -1.52732014656E-001         F               0         Blade root 2 X orientation angle, node 1, rad
        113     3.57261784375E-002,   8.89609575272E-001,  -4.55322325230E-001         F               0         Blade root 2 Y orientation angle, node 1, rad
        114     1.89407780766E-001,   4.41327750683E-001,   8.77128541470E-001         F               0         Blade root 2 Z orientation angle, node 1, rad
        115     9.36500847340E-001,   1.80135034025E-002,  -3.50202292204E-001         F               0         Blade root 3 X orientation angle, node 1, rad
        116     3.50617647171E-001,  -6.45583793521E-002,   9.34290885925E-001         F               0         Blade root 3 Y orientation angle, node 1, rad
        117    -5.77864097431E-003,  -9.97751355171E-001,  -6.67748302221E-002         F               0         Blade root 3 Z orientation angle, node 1, rad
        118     2.39156818390E+001                                                     F               0         Blade 1 X translation displacement, node 1, m
        119    -5.24981784821E+000                                                     F               0         Blade 1 Y translation displacement, node 1, m
        120    -1.00695991516E+001                                                     F               0         Blade 1 Z translation displacement, node 1, m
        121     2.35310192108E+001                                                     F               0         Blade 1 X translation displacement, node 2, m
        122    -4.50704479218E+000                                                     F               0         Blade 1 Y translation displacement, node 2, m
        123    -1.24789361954E+001                                                     F               0         Blade 1 Z translation displacement, node 2, m
        124     1.83002662659E+001                                                     F               0         Blade 1 X translation displacement, node 3, m
        125     5.59338235855E+000                                                     F               0         Blade 1 Y translation displacement, node 3, m
        126    -4.52417678833E+001                                                     F               0         Blade 1 Z translation displacement, node 3, m
        127     1.71858215332E+001                                                     F               0         Blade 1 X translation displacement, node 4, m
        128     7.74533796310E+000                                                     F               0         Blade 1 Y translation displacement, node 4, m
        129    -5.22220916748E+001                                                     F               0         Blade 1 Z translation displacement, node 4, m
        130     1.60711669922E+001                                                     F               0         Blade 1 X translation displacement, node 5, m
        131     9.89770317078E+000                                                     F               0         Blade 1 Y translation displacement, node 5, m
        132    -5.92037277222E+001                                                     F               0         Blade 1 Z translation displacement, node 5, m
        133     1.49567193985E+001                                                     F               0         Blade 1 X translation displacement, node 6, m
        134     1.20496673584E+001                                                     F               0         Blade 1 Y translation displacement, node 6, m
        135    -6.61840820312E+001                                                     F               0         Blade 1 Z translation displacement, node 6, m
        136     1.38422679901E+001                                                     F               0         Blade 1 X translation displacement, node 7, m
        137     1.42016382217E+001                                                     F               0         Blade 1 Y translation displacement, node 7, m
        138    -7.31644439697E+001                                                     F               0         Blade 1 Z translation displacement, node 7, m
        139     1.27276172638E+001                                                     F               0         Blade 1 X translation displacement, node 8, m
        140     1.63539943695E+001                                                     F               0         Blade 1 Y translation displacement, node 8, m
        141    -8.01460647583E+001                                                     F               0         Blade 1 Z translation displacement, node 8, m
        142     1.16131658554E+001                                                     F               0         Blade 1 X translation displacement, node 9, m
        143     1.85059680939E+001                                                     F               0         Blade 1 Y translation displacement, node 9, m
        144    -8.71264266968E+001                                                     F               0         Blade 1 Z translation displacement, node 9, m
        145     1.04987182617E+001                                                     F               0         Blade 1 X translation displacement, node 10, m
        146     2.06579322815E+001                                                     F               0         Blade 1 Y translation displacement, node 10, m
        147    -9.41067810059E+001                                                     F               0         Blade 1 Z translation displacement, node 10, m
        148     9.38426685333E+000                                                     F               0         Blade 1 X translation displacement, node 11, m
        149     2.28099040985E+001                                                     F               0         Blade 1 Y translation displacement, node 11, m
        150    -1.01087142944E+002                                                     F               0         Blade 1 Z translation displacement, node 11, m
        151     8.26961994171E+000                                                     F               0         Blade 1 X translation displacement, node 12, m
        152     2.49622535706E+001                                                     F               0         Blade 1 Y translation displacement, node 12, m
        153    -1.08068740845E+002                                                     F               0         Blade 1 Z translation displacement, node 12, m
        154     7.15516853333E+000                                                     F               0         Blade 1 X translation displacement, node 13, m
        155     2.71142253876E+001                                                     F               0         Blade 1 Y translation displacement, node 13, m
        156    -1.15049102783E+002                                                     F               0         Blade 1 Z translation displacement, node 13, m
        157     6.04072093964E+000                                                     F               0         Blade 1 X translation displacement, node 14, m
        158     2.92661895752E+001                                                     F               0         Blade 1 Y translation displacement, node 14, m
        159    -1.22029449463E+002                                                     F               0         Blade 1 Z translation displacement, node 14, m
        160     4.92606735229E+000                                                     F               0         Blade 1 X translation displacement, node 15, m
        161     3.14185504913E+001                                                     F               0         Blade 1 Y translation displacement, node 15, m
        162    -1.29011077881E+002                                                     F               0         Blade 1 Z translation displacement, node 15, m
        163     3.81161928177E+000                                                     F               0         Blade 1 X translation displacement, node 16, m
        164     3.35705184937E+001                                                     F               0         Blade 1 Y translation displacement, node 16, m
        165    -1.35991439819E+002                                                     F               0         Blade 1 Z translation displacement, node 16, m
        166     2.69716691971E+000                                                     F               0         Blade 1 X translation displacement, node 17, m
        167     3.57224922180E+001                                                     F               0         Blade 1 Y translation displacement, node 17, m
        168    -1.42971801758E+002                                                     F               0         Blade 1 Z translation displacement, node 17, m
        169     1.58271861076E+000                                                     F               0         Blade 1 X translation displacement, node 18, m
        170     3.78744583130E+001                                                     F               0         Blade 1 Y translation displacement, node 18, m
        171    -1.49952163696E+002                                                     F               0         Blade 1 Z translation displacement, node 18, m
        172     4.68071520329E-001                                                     F               0         Blade 1 X translation displacement, node 19, m
        173     4.00268058777E+001                                                     F               0         Blade 1 Y translation displacement, node 19, m
        174    -1.56933746338E+002                                                     F               0         Blade 1 Z translation displacement, node 19, m
        175    -6.46381020546E-001                                                     F               0         Blade 1 X translation displacement, node 20, m
        176     4.21787796021E+001                                                     F               0         Blade 1 Y translation displacement, node 20, m
        177    -1.63914108276E+002                                                     F               0         Blade 1 Z translation displacement, node 20, m
        178    -1.76082921028E+000                                                     F               0         Blade 1 X translation displacement, node 21, m
        179     4.43307456970E+001                                                     F               0         Blade 1 Y translation displacement, node 21, m
        180    -1.70894470215E+002                                                     F               0         Blade 1 Z translation displacement, node 21, m
        181    -2.87548065186E+000                                                     F               0         Blade 1 X translation displacement, node 22, m
        182     4.64831047058E+001                                                     F               0         Blade 1 Y translation displacement, node 22, m
        183    -1.77876098633E+002                                                     F               0         Blade 1 Z translation displacement, node 22, m