
Linearized model: Predictions were generated on 13-Feb-2024 at 11:29:37 using OpenFAST, compiled as a 64-bit application using single precision at commit v3.5.1
 linked with  NWTC Subroutine Library; ElastoDyn; InflowWind; AeroDyn; ServoDyn; HydroDyn; MAP++ (<1.20.10>, <Oct-20-2023>)

Description from the FAST input file: CCT-9 Campign 4 model. Input files to be run with OpenFAST 3.5.0. GitHub branch from Lu Wang (https://github.com/luwang00/openfast/tree/dev) compiled on March 7, 2023.

Simulation information:
   Simulation time:                  1215.7000 s
   Rotor Speed:                         0.7919 rad/s
   Azimuth:                             3.8592 rad
   Wind Speed:                         16.0000 m/s
   Number of continuous states:         0
   Number of discrete states:           0
   Number of constraint states:         0
   Number of inputs:                  303
   Number of outputs:                   1
   Jacobians included in this file?    No

Order of inputs:
     Column   Operating Point                                                   Rotating Frame? Derivative Order Description
   ---------- ---------------                                                   --------------- ---------------- -----------
          1    -1.08005075455E+001                                                     F               0         X-component position of node 1 (hub), m
          2     0.00000000000E+000                                                     F               0         Y-component position of node 1 (hub), m
          3     1.49740173340E+002                                                     F               0         Z-component position of node 1 (hub), m
          4     1.38208589554E+001                                                     F               0         X-component position of node 2 (blade 1, node 1), m
          5    -4.48407793045E+000                                                     F               0         Y-component position of node 2 (blade 1, node 1), m
          6     1.45784988403E+002                                                     F               0         Z-component position of node 2 (blade 1, node 1), m
          7     1.36062746048E+001                                                     F               0         X-component position of node 3 (blade 1, node 2), m
          8    -3.55649304390E+000                                                     F               0         Y-component position of node 3 (blade 1, node 2), m
          9     1.44849304199E+002                                                     F               0         Z-component position of node 3 (blade 1, node 2), m
         10     1.06882972717E+001                                                     F               0         X-component position of node 4 (blade 1, node 3), m
         11     9.05705165863E+000                                                     F               0         Y-component position of node 4 (blade 1, node 3), m
         12     1.32125549316E+002                                                     F               0         Z-component position of node 4 (blade 1, node 3), m
         13     1.00666074753E+001                                                     F               0         X-component position of node 5 (blade 1, node 4), m
         14     1.17444419861E+001                                                     F               0         Y-component position of node 5 (blade 1, node 4), m
         15     1.29414688110E+002                                                     F               0         Z-component position of node 5 (blade 1, node 4), m
         16     9.44479560852E+000                                                     F               0         X-component position of node 6 (blade 1, node 5), m
         17     1.44323434830E+001                                                     F               0         Y-component position of node 6 (blade 1, node 5), m
         18     1.26703300476E+002                                                     F               0         Z-component position of node 6 (blade 1, node 5), m
         19     8.82310199738E+000                                                     F               0         X-component position of node 7 (blade 1, node 6), m
         20     1.71197452545E+001                                                     F               0         Y-component position of node 7 (blade 1, node 6), m
         21     1.23992416382E+002                                                     F               0         Z-component position of node 7 (blade 1, node 6), m
         22     8.20140457153E+000                                                     F               0         X-component position of node 8 (blade 1, node 7), m
         23     1.98071537018E+001                                                     F               0         Y-component position of node 8 (blade 1, node 7), m
         24     1.21281532288E+002                                                     F               0         Z-component position of node 8 (blade 1, node 7), m
         25     7.57959604263E+000                                                     F               0         X-component position of node 9 (blade 1, node 8), m
         26     2.24950447083E+001                                                     F               0         Y-component position of node 9 (blade 1, node 8), m
         27     1.18570152283E+002                                                     F               0         Z-component position of node 9 (blade 1, node 8), m
         28     6.95789861679E+000                                                     F               0         X-component position of node 10 (blade 1, node 9), m
         29     2.51824569702E+001                                                     F               0         Y-component position of node 10 (blade 1, node 9), m
         30     1.15859268188E+002                                                     F               0         Z-component position of node 10 (blade 1, node 9), m
         31     6.33620452881E+000                                                     F               0         X-component position of node 11 (blade 1, node 10), m
         32     2.78698577881E+001                                                     F               0         Y-component position of node 11 (blade 1, node 10), m
         33     1.13148384094E+002                                                     F               0         Z-component position of node 11 (blade 1, node 10), m
         34     5.71450662613E+000                                                     F               0         X-component position of node 12 (blade 1, node 11), m
         35     3.05572681427E+001                                                     F               0         Y-component position of node 12 (blade 1, node 11), m
         36     1.10437492371E+002                                                     F               0         Z-component position of node 12 (blade 1, node 11), m
         37     5.09270334244E+000                                                     F               0         X-component position of node 13 (blade 1, node 12), m
         38     3.32451515198E+001                                                     F               0         Y-component position of node 13 (blade 1, node 12), m
         39     1.07726127625E+002                                                     F               0         Z-component position of node 13 (blade 1, node 12), m
         40     4.47100496292E+000                                                     F               0         X-component position of node 14 (blade 1, node 13), m
         41     3.59325599670E+001                                                     F               0         Y-component position of node 14 (blade 1, node 13), m
         42     1.05015235901E+002                                                     F               0         Z-component position of node 14 (blade 1, node 13), m
         43     3.84931111336E+000                                                     F               0         X-component position of node 15 (blade 1, node 14), m
         44     3.86199607849E+001                                                     F               0         Y-component position of node 15 (blade 1, node 14), m
         45     1.02304359436E+002                                                     F               0         Z-component position of node 15 (blade 1, node 14), m
         46     3.22750067711E+000                                                     F               0         X-component position of node 16 (blade 1, node 15), m
         47     4.13078575134E+001                                                     F               0         Y-component position of node 16 (blade 1, node 15), m
         48     9.95929794312E+001                                                     F               0         Z-component position of node 16 (blade 1, node 15), m
         49     2.60580635071E+000                                                     F               0         X-component position of node 17 (blade 1, node 16), m
         50     4.39952621460E+001                                                     F               0         Y-component position of node 17 (blade 1, node 16), m
         51     9.68820953369E+001                                                     F               0         Z-component position of node 17 (blade 1, node 16), m
         52     1.98410809040E+000                                                     F               0         X-component position of node 18 (blade 1, node 17), m
         53     4.66826782227E+001                                                     F               0         Y-component position of node 18 (blade 1, node 17), m
         54     9.41711959839E+001                                                     F               0         Z-component position of node 18 (blade 1, node 17), m
         55     1.36241328716E+000                                                     F               0         X-component position of node 19 (blade 1, node 18), m
         56     4.93700790405E+001                                                     F               0         Y-component position of node 19 (blade 1, node 18), m
         57     9.14603118896E+001                                                     F               0         Z-component position of node 19 (blade 1, node 18), m
         58     7.40608274937E-001                                                     F               0         X-component position of node 20 (blade 1, node 19), m
         59     5.20579605103E+001                                                     F               0         Y-component position of node 20 (blade 1, node 19), m
         60     8.87489547729E+001                                                     F               0         Z-component position of node 20 (blade 1, node 19), m
         61     1.18909686804E-001                                                     F               0         X-component position of node 21 (blade 1, node 20), m
         62     5.47453727722E+001                                                     F               0         Y-component position of node 21 (blade 1, node 20), m
         63     8.60380630493E+001                                                     F               0         Z-component position of node 21 (blade 1, node 20), m
         64    -5.02784788609E-001                                                     F               0         X-component position of node 22 (blade 1, node 21), m
         65     5.74327774048E+001                                                     F               0         Y-component position of node 22 (blade 1, node 21), m
         66     8.33271713257E+001                                                     F               0         Z-component position of node 22 (blade 1, node 21), m
         67    -1.12459313869E+000                                                     F               0         X-component position of node 23 (blade 1, node 22), m
         68     6.01206703186E+001                                                     F               0         Y-component position of node 23 (blade 1, node 22), m
         69     8.06157989502E+001                                                     F               0         Z-component position of node 23 (blade 1, node 22), m
         70    -1.74629163742E+000                                                     F               0         X-component position of node 24 (blade 1, node 23), m
         71     6.28080787659E+001                                                     F               0         Y-component position of node 24 (blade 1, node 23), m
         72     7.79049072266E+001                                                     F               0         Z-component position of node 24 (blade 1, node 23), m
         73    -2.36798620224E+000                                                     F               0         X-component position of node 25 (blade 1, node 24), m
         74     6.54954833984E+001                                                     F               0         Y-component position of node 25 (blade 1, node 24), m
         75     7.51940231323E+001                                                     F               0         Z-component position of node 25 (blade 1, node 24), m
         76    -2.98968076706E+000                                                     F               0         X-component position of node 26 (blade 1, node 25), m
         77     6.81828842163E+001                                                     F               0         Y-component position of node 26 (blade 1, node 25), m
         78     7.24831390381E+001                                                     F               0         Z-component position of node 26 (blade 1, node 25), m
         79    -3.61148905754E+000                                                     F               0         X-component position of node 27 (blade 1, node 26), m
         80     7.08707809448E+001                                                     F               0         Y-component position of node 27 (blade 1, node 26), m
         81     6.97717590332E+001                                                     F               0         Z-component position of node 27 (blade 1, node 26), m
         82    -4.23318338394E+000                                                     F               0         X-component position of node 28 (blade 1, node 27), m
         83     7.35581817627E+001                                                     F               0         Y-component position of node 28 (blade 1, node 27), m
         84     6.70608901978E+001                                                     F               0         Z-component position of node 28 (blade 1, node 27), m
         85    -4.76025009155E+000                                                     F               0         X-component position of node 29 (blade 1, node 28), m
         86     7.58365325928E+001                                                     F               0         Y-component position of node 29 (blade 1, node 28), m
         87     6.47626342773E+001                                                     F               0         Z-component position of node 29 (blade 1, node 28), m
         88     1.58449296951E+001                                                     F               0         X-component position of node 30 (blade 2, node 1), m
         89    -6.80843591690E+000                                                     F               0         Y-component position of node 30 (blade 2, node 1), m
         90     1.54872085571E+002                                                     F               0         Z-component position of node 30 (blade 2, node 1), m
         91     1.61180591583E+001                                                     F               0         X-component position of node 31 (blade 2, node 2), m
         92    -6.44092226028E+000                                                     F               0         Y-component position of node 31 (blade 2, node 2), m
         93     1.56125991821E+002                                                     F               0         Z-component position of node 31 (blade 2, node 2), m
         94     1.98321685791E+001                                                     F               0         X-component position of node 32 (blade 2, node 3), m
         95    -1.44339716434E+000                                                     F               0         Y-component position of node 32 (blade 2, node 3), m
         96     1.73177093506E+002                                                     F               0         Z-component position of node 32 (blade 2, node 3), m
         97     2.06234855652E+001                                                     F               0         X-component position of node 33 (blade 2, node 4), m
         98    -3.78640383482E-001                                                     F               0         Y-component position of node 33 (blade 2, node 4), m
         99     1.76809951782E+002                                                     F               0         Z-component position of node 33 (blade 2, node 4), m
        100     2.14149456024E+001                                                     F               0         X-component position of node 34 (blade 2, node 5), m
        101     6.86319351196E-001                                                     F               0         Y-component position of node 34 (blade 2, node 5), m
        102     1.80443466187E+002                                                     F               0         Z-component position of node 34 (blade 2, node 5), m
        103     2.22062644958E+001                                                     F               0         X-component position of node 35 (blade 2, node 6), m
        104     1.75107610226E+000                                                     F               0         Y-component position of node 35 (blade 2, node 6), m
        105     1.84076324463E+002                                                     F               0         Z-component position of node 35 (blade 2, node 6), m
        106     2.29975814819E+001                                                     F               0         X-component position of node 36 (blade 2, node 7), m
        107     2.81583499908E+000                                                     F               0         Y-component position of node 36 (blade 2, node 7), m
        108     1.87709182739E+002                                                     F               0         Z-component position of node 36 (blade 2, node 7), m
        109     2.37890415192E+001                                                     F               0         X-component position of node 37 (blade 2, node 8), m
        110     3.88079357147E+000                                                     F               0         Y-component position of node 37 (blade 2, node 8), m
        111     1.91342697144E+002                                                     F               0         Z-component position of node 37 (blade 2, node 8), m
        112     2.45803585052E+001                                                     F               0         X-component position of node 38 (blade 2, node 9), m
        113     4.94555044174E+000                                                     F               0         Y-component position of node 38 (blade 2, node 9), m
        114     1.94975555420E+002                                                     F               0         Z-component position of node 38 (blade 2, node 9), m
        115     2.53716754913E+001                                                     F               0         X-component position of node 39 (blade 2, node 10), m
        116     6.01031255722E+000                                                     F               0         Y-component position of node 39 (blade 2, node 10), m
        117     1.98608413696E+002                                                     F               0         Z-component position of node 39 (blade 2, node 10), m
        118     2.61629943848E+001                                                     F               0         X-component position of node 40 (blade 2, node 11), m
        119     7.07507276535E+000                                                     F               0         Y-component position of node 40 (blade 2, node 11), m
        120     2.02241271973E+002                                                     F               0         Z-component position of node 40 (blade 2, node 11), m
        121     2.69544544220E+001                                                     F               0         X-component position of node 41 (blade 2, node 12), m
        122     8.14003276825E+000                                                     F               0         Y-component position of node 41 (blade 2, node 12), m
        123     2.05874786377E+002                                                     F               0         Z-component position of node 41 (blade 2, node 12), m
        124     2.77457714081E+001                                                     F               0         X-component position of node 42 (blade 2, node 13), m
        125     9.20478820801E+000                                                     F               0         Y-component position of node 42 (blade 2, node 13), m
        126     2.09507644653E+002                                                     F               0         Z-component position of node 42 (blade 2, node 13), m
        127     2.85370903015E+001                                                     F               0         X-component position of node 43 (blade 2, node 14), m
        128     1.02695531845E+001                                                     F               0         Y-component position of node 43 (blade 2, node 14), m
        129     2.13140502930E+002                                                     F               0         Z-component position of node 43 (blade 2, node 14), m
        130     2.93285503387E+001                                                     F               0         X-component position of node 44 (blade 2, node 15), m
        131     1.13345041275E+001                                                     F               0         Y-component position of node 44 (blade 2, node 15), m
        132     2.16774017334E+002                                                     F               0         Z-component position of node 44 (blade 2, node 15), m
        133     3.01198673248E+001                                                     F               0         X-component position of node 45 (blade 2, node 16), m
        134     1.23992586136E+001                                                     F               0         Y-component position of node 45 (blade 2, node 16), m
        135     2.20406875610E+002                                                     F               0         Z-component position of node 45 (blade 2, node 16), m
        136     3.09111843109E+001                                                     F               0         X-component position of node 46 (blade 2, node 17), m
        137     1.34640188217E+001                                                     F               0         Y-component position of node 46 (blade 2, node 17), m
        138     2.24039733887E+002                                                     F               0         Z-component position of node 46 (blade 2, node 17), m
        139     3.17025012970E+001                                                     F               0         X-component position of node 47 (blade 2, node 18), m
        140     1.45287799835E+001                                                     F               0         Y-component position of node 47 (blade 2, node 18), m
        141     2.27672592163E+002                                                     F               0         Z-component position of node 47 (blade 2, node 18), m
        142     3.24939613342E+001                                                     F               0         X-component position of node 48 (blade 2, node 19), m
        143     1.55937376022E+001                                                     F               0         Y-component position of node 48 (blade 2, node 19), m
        144     2.31306106567E+002                                                     F               0         Z-component position of node 48 (blade 2, node 19), m
        145     3.32852783203E+001                                                     F               0         X-component position of node 49 (blade 2, node 20), m
        146     1.66584968567E+001                                                     F               0         Y-component position of node 49 (blade 2, node 20), m
        147     2.34938964844E+002                                                     F               0         Z-component position of node 49 (blade 2, node 20), m
        148     3.40765991211E+001                                                     F               0         X-component position of node 50 (blade 2, node 21), m
        149     1.77232646942E+001                                                     F               0         Y-component position of node 50 (blade 2, node 21), m
        150     2.38571823120E+002                                                     F               0         Z-component position of node 50 (blade 2, node 21), m
        151     3.48680572510E+001                                                     F               0         X-component position of node 51 (blade 2, node 22), m
        152     1.87882137299E+001                                                     F               0         Y-component position of node 51 (blade 2, node 22), m
        153     2.42205337524E+002                                                     F               0         Z-component position of node 51 (blade 2, node 22), m
        154     3.56593742371E+001                                                     F               0         X-component position of node 52 (blade 2, node 23), m
        155     1.98529663086E+001                                                     F               0         Y-component position of node 52 (blade 2, node 23), m
        156     2.45838195801E+002                                                     F               0         Z-component position of node 52 (blade 2, node 23), m
        157     3.64506912231E+001                                                     F               0         X-component position of node 53 (blade 2, node 24), m
        158     2.09177303314E+001                                                     F               0         Y-component position of node 53 (blade 2, node 24), m
        159     2.49471054077E+002                                                     F               0         Z-component position of node 53 (blade 2, node 24), m
        160     3.72420082092E+001                                                     F               0         X-component position of node 54 (blade 2, node 25), m
        161     2.19824905396E+001                                                     F               0         Y-component position of node 54 (blade 2, node 25), m
        162     2.53103912354E+002                                                     F               0         Z-component position of node 54 (blade 2, node 25), m
        163     3.80334701538E+001                                                     F               0         X-component position of node 55 (blade 2, node 26), m
        164     2.30474414825E+001                                                     F               0         Y-component position of node 55 (blade 2, node 26), m
        165     2.56737426758E+002                                                     F               0         Z-component position of node 55 (blade 2, node 26), m
        166     3.88247871399E+001                                                     F               0         X-component position of node 56 (blade 2, node 27), m
        167     2.41122035980E+001                                                     F               0         Y-component position of node 56 (blade 2, node 27), m
        168     2.60370300293E+002                                                     F               0         Z-component position of node 56 (blade 2, node 27), m
        169     3.94956512451E+001                                                     F               0         X-component position of node 57 (blade 2, node 28), m
        170     2.50148906708E+001                                                     F               0         Y-component position of node 57 (blade 2, node 28), m
        171     2.63450164795E+002                                                     F               0         Z-component position of node 57 (blade 2, node 28), m
        172     1.44684333801E+001                                                     F               0         X-component position of node 58 (blade 3, node 1), m