
Linearized model: Predictions were generated on 13-Feb-2024 at 12:12:09 using OpenFAST, compiled as a 64-bit application using single precision at commit v3.5.1
 linked with  NWTC Subroutine Library; ElastoDyn; InflowWind; AeroDyn; ServoDyn; HydroDyn; MAP++ (<1.20.10>, <Oct-20-2023>)

Description from the FAST input file: CCT-9 Campign 4 model. Input files to be run with OpenFAST 3.5.0. GitHub branch from Lu Wang (https://github.com/luwang00/openfast/tree/dev) compiled on March 7, 2023.

Simulation information:
   Simulation time:                   773.1000 s
   Rotor Speed:                         0.7915 rad/s
   Azimuth:                             2.1097 rad
   Wind Speed:                         24.0000 m/s
   Number of continuous states:         0
   Number of discrete states:           0
   Number of constraint states:         0
   Number of inputs:                 1746
   Number of outputs:                   4
   Jacobians included in this file?    No

Order of inputs:
     Column   Operating Point                                                   Rotating Frame? Derivative Order Description
   ---------- ---------------                                                   --------------- ---------------- -----------
          1     8.55294609070E+000                                                     F               0         Tower X translation displacement, node 1, m
          2    -1.82483637333E+000                                                     F               0         Tower Y translation displacement, node 1, m
          3    -2.14092016220E-001                                                     F               0         Tower Z translation displacement, node 1, m
          4     9.72604846954E+000                                                     F               0         Tower X translation displacement, node 2, m
          5    -2.50075650215E+000                                                     F               0         Tower Y translation displacement, node 2, m
          6    -2.88501501083E-001                                                     F               0         Tower Z translation displacement, node 2, m
          7     1.09177350998E+001                                                     F               0         Tower X translation displacement, node 3, m
          8    -3.18470048904E+000                                                     F               0         Tower Y translation displacement, node 3, m
          9    -3.65140587091E-001                                                     F               0         Tower Z translation displacement, node 3, m
         10     1.21233634949E+001                                                     F               0         Tower X translation displacement, node 4, m
         11    -3.87524533272E+000                                                     F               0         Tower Y translation displacement, node 4, m
         12    -4.43510204554E-001                                                     F               0         Tower Z translation displacement, node 4, m
         13     1.33403520584E+001                                                     F               0         Tower X translation displacement, node 5, m
         14    -4.57175445557E+000                                                     F               0         Tower Y translation displacement, node 5, m
         15    -5.23334741592E-001                                                     F               0         Tower Z translation displacement, node 5, m
         16     1.45662908554E+001                                                     F               0         Tower X translation displacement, node 6, m
         17    -5.27355432510E+000                                                     F               0         Tower Y translation displacement, node 6, m
         18    -6.04361951351E-001                                                     F               0         Tower Z translation displacement, node 6, m
         19     1.57985677719E+001                                                     F               0         Tower X translation displacement, node 7, m
         20    -5.97960138321E+000                                                     F               0         Tower Y translation displacement, node 7, m
         21    -6.86253309250E-001                                                     F               0         Tower Z translation displacement, node 7, m
         22     1.70359573364E+001                                                     F               0         Tower X translation displacement, node 8, m
         23    -6.68955755234E+000                                                     F               0         Tower Y translation displacement, node 8, m
         24    -7.68896579742E-001                                                     F               0         Tower Z translation displacement, node 8, m
         25     1.82768249512E+001                                                     F               0         Tower X translation displacement, node 9, m
         26    -7.40261268616E+000                                                     F               0         Tower Y translation displacement, node 9, m
         27    -8.52061390877E-001                                                     F               0         Tower Z translation displacement, node 9, m
         28     1.95198307037E+001                                                     F               0         Tower X translation displacement, node 10, m
         29    -8.11790847778E+000                                                     F               0         Tower Y translation displacement, node 10, m
         30    -9.35579478741E-001                                                     F               0         Tower Z translation displacement, node 10, m
         31     2.07639064789E+001                                                     F               0         Tower X translation displacement, node 11, m
         32    -8.83460712433E+000                                                     F               0         Tower Y translation displacement, node 11, m
         33    -1.01928472519E+000                                                     F               0         Tower Z translation displacement, node 11, m
         34     9.95469212532E-001,  -6.69970968738E-003,  -9.48482304811E-002         F               0         Tower X orientation angle, node 1, rad
         35     1.18252551183E-002,   9.98493492603E-001,   5.35809770226E-002         F               0         Tower Y orientation angle, node 1, rad
         36     9.43463593721E-002,  -5.44598139822E-002,   9.94048714638E-001         F               0         Tower Z orientation angle, node 1, rad
         37     9.95332837105E-001,  -6.62116706371E-003,  -9.62738767266E-002         F               0         Tower X orientation angle, node 2, rad
         38     1.18814688176E-002,   9.98461127281E-001,   5.41687794030E-002         F               0         Tower Y orientation angle, node 2, rad
         39     9.57670584321E-002,  -5.50598427653E-002,   9.93879795074E-001         F               0         Tower Z orientation angle, node 2, rad
         40     9.95212852955E-001,  -6.55222870409E-003,  -9.75114703178E-002         F               0         Tower X orientation angle, node 3, rad
         41     1.19343604892E-002,   9.98430728912E-001,   5.47144040465E-002         F               0         Tower Y orientation angle, node 3, rad
         42     9.69999432564E-002,  -5.56162148714E-002,   9.93729233742E-001         F               0         Tower Z orientation angle, node 3, rad
         43     9.95111703873E-001,  -6.49420917034E-003,  -9.85419452190E-002         F               0         Tower X orientation angle, node 4, rad
         44     1.19831524789E-002,   9.98402714729E-001,   5.52124194801E-002         F               0         Tower Y orientation angle, node 4, rad
         45     9.80259850621E-002,  -5.61233684421E-002,   9.93600070477E-001         F               0         Tower Z orientation angle, node 4, rad
         46     9.95029211044E-001,  -6.44682860002E-003,  -9.93746668100E-002         F               0         Tower X orientation angle, node 5, rad
         47     1.20274322107E-002,   9.98377263546E-001,   5.56608550251E-002         F               0         Tower Y orientation angle, node 5, rad
         48     9.88545715809E-002,  -5.65793961287E-002,   9.93492066860E-001         F               0         Tower Z orientation angle, node 5, rad
         49     9.94964301586E-001,  -6.40945695341E-003,  -1.00024633110E-001         F               0         Tower X orientation angle, node 6, rad
         50     1.20667153969E-002,   9.98354673386E-001,   5.60565926135E-002         F               0         Tower Y orientation angle, node 6, rad
         51     9.95007678866E-002,  -5.69812804461E-002,   9.93404626846E-001         F               0         Tower Z orientation angle, node 6, rad
         52     9.94916677475E-001,  -6.38187211007E-003,  -1.00499205291E-001         F               0         Tower X orientation angle, node 7, rad
         53     1.20999887586E-002,   9.98335421085E-001,   5.63908070326E-002         F               0         Tower Y orientation angle, node 7, rad
         54     9.99720394611E-002,  -5.73201924562E-002,   9.93337810040E-001         F               0         Tower Z orientation angle, node 7, rad
         55     9.94882762432E-001,  -6.36211037636E-003,  -1.00835591555E-001         F               0         Tower X orientation angle, node 8, rad
         56     1.21272169054E-002,   9.98319625854E-001,   5.66639155149E-002         F               0         Tower Y orientation angle, node 8, rad
         57     1.00305654109E-001,  -5.75968064368E-002,   9.93288159370E-001         F               0         Tower Z orientation angle, node 8, rad
         58     9.94860410690E-001,  -6.34897267446E-003,  -1.01056814194E-001         F               0         Tower X orientation angle, node 9, rad
         59     1.21479909867E-002,   9.98307526112E-001,   5.68722411990E-002         F               0         Tower Y orientation angle, node 9, rad
         60     1.00524693727E-001,  -5.78075796366E-002,   9.93253767490E-001         F               0         Tower Z orientation angle, node 9, rad
         61     9.94847416878E-001,  -6.34126318619E-003,  -1.01185180247E-001         F               0         Tower X orientation angle, node 10, rad
         62     1.21620045975E-002,   9.98299360275E-001,   5.70128895342E-002         F               0         Tower Y orientation angle, node 10, rad
         63     1.00651569664E-001,  -5.79497404397E-002,   9.93232667446E-001         F               0         Tower Z orientation angle, node 10, rad
         64     9.94841158390E-001,  -6.33752811700E-003,  -1.01246662438E-001         F               0         Tower X orientation angle, node 11, rad
         65     1.21698230505E-002,   9.98294770718E-001,   5.70914559066E-002         F               0         Tower Y orientation angle, node 11, rad
         66     1.00712195039E-001,  -5.80290816724E-002,   9.93221879005E-001         F               0         Tower Z orientation angle, node 11, rad
         67    -8.19264631718E-003                                                     F               0         Tower X translation velocity, node 1, m/s
         68     5.86141541135E-004                                                     F               0         Tower Y translation velocity, node 1, m/s
         69     5.87493013882E-005                                                     F               0         Tower Z translation velocity, node 1, m/s
         70    -1.04522472247E-002                                                     F               0         Tower X translation velocity, node 2, m/s
         71     6.11856288742E-004                                                     F               0         Tower Y translation velocity, node 2, m/s
         72     2.75827187579E-004                                                     F               0         Tower Z translation velocity, node 2, m/s
         73    -1.14555275068E-002                                                     F               0         Tower X translation velocity, node 3, m/s
         74     7.52987922169E-004                                                     F               0         Tower Y translation velocity, node 3, m/s
         75     3.81047837436E-004                                                     F               0         Tower Z translation velocity, node 3, m/s
         76    -1.13683650270E-002                                                     F               0         Tower X translation velocity, node 4, m/s
         77     9.80434473604E-004                                                     F               0         Tower Y translation velocity, node 4, m/s
         78     3.85266961530E-004                                                     F               0         Tower Z translation velocity, node 4, m/s
         79    -1.02433385327E-002                                                     F               0         Tower X translation velocity, node 5, m/s
         80     1.27791985869E-003                                                     F               0         Tower Y translation velocity, node 5, m/s
         81     2.90592986858E-004                                                     F               0         Tower Z translation velocity, node 5, m/s
         82    -8.14871862531E-003                                                     F               0         Tower X translation velocity, node 6, m/s
         83     1.63031427655E-003                                                     F               0         Tower Y translation velocity, node 6, m/s
         84     1.01516474388E-004                                                     F               0         Tower Z translation velocity, node 6, m/s
         85    -5.23899914697E-003                                                     F               0         Tower X translation velocity, node 7, m/s
         86     2.02138582245E-003                                                     F               0         Tower Y translation velocity, node 7, m/s
         87    -1.68108716025E-004                                                     F               0         Tower Z translation velocity, node 7, m/s
         88    -1.54550466686E-003                                                     F               0         Tower X translation velocity, node 8, m/s
         89     2.44354456663E-003                                                     F               0         Tower Y translation velocity, node 8, m/s
         90    -5.16015687026E-004                                                     F               0         Tower Z translation velocity, node 8, m/s
         91     2.79727741145E-003                                                     F               0         Tower X translation velocity, node 9, m/s
         92     2.88683734834E-003                                                     F               0         Tower Y translation velocity, node 9, m/s
         93    -9.29275585804E-004                                                     F               0         Tower Z translation velocity, node 9, m/s
         94     7.63139687479E-003                                                     F               0         Tower X translation velocity, node 10, m/s
         95     3.34333628416E-003                                                     F               0         Tower Y translation velocity, node 10, m/s
         96    -1.39221188147E-003                                                     F               0         Tower Z translation velocity, node 10, m/s
         97     1.27869304270E-002                                                     F               0         Tower X translation velocity, node 11, m/s
         98     3.80732072517E-003                                                     F               0         Tower Y translation velocity, node 11, m/s
         99    -1.88763951883E-003                                                     F               0         Tower Z translation velocity, node 11, m/s
        100     2.16102333069E+001                                                     F               0         Hub X translation displacement, node 1, m
        101    -9.22169685364E+000                                                     F               0         Hub Y translation displacement, node 1, m
        102     2.10263971239E-002                                                     F               0         Hub Z translation displacement, node 1, m
        103     9.78864014149E-001,  -2.37119573285E-004,  -2.04511985183E-001         F               0         Hub X orientation angle, node 1, rad
        104     1.68974831700E-001,  -5.62389194965E-001,   8.09423208237E-001         F               0         Hub Y orientation angle, node 1, rad
        105    -1.15207262337E-001,  -8.26872646809E-001,  -5.50462484360E-001         F               0         Hub Z orientation angle, node 1, rad
        106     7.74774372578E-001                                                     F               0         Hub X rotation velocity, node 1, rad/s
        107     2.36768886680E-004                                                     F               0         Hub Y rotation velocity, node 1, rad/s
        108    -1.61857843399E-001                                                     F               0         Hub Z rotation velocity, node 1, rad/s
        109     8.87529492378E-001,   1.63187950850E-001,  -4.30884033442E-001         F               0         Blade root 1 X orientation angle, node 1, rad
        110     4.46115046740E-001,  -5.38192689419E-001,   7.15073406696E-001         F               0         Blade root 1 Y orientation angle, node 1, rad
        111    -1.15207262337E-001,  -8.26872646809E-001,  -5.50462484360E-001         F               0         Blade root 1 Z orientation angle, node 1, rad
        112     9.90169823170E-001,   1.26142546535E-001,   6.04302920401E-002         F               0         Blade root 2 X orientation angle, node 1, rad
        113     1.08121410012E-001,  -4.16202455759E-001,  -9.02820765972E-001         F               0         Blade root 2 Y orientation angle, node 1, rad
        114    -8.87328684330E-002,   9.00479614735E-001,  -4.25749808550E-001         F               0         Blade root 2 Z orientation angle, node 1, rad
        115     9.32187557220E-001,  -2.90011167526E-001,  -2.16609969735E-001         F               0         Blade root 3 X orientation angle, node 1, rad
        116     2.99056470394E-001,   9.54188406467E-001,   9.47063229978E-003         F               0         Blade root 3 Y orientation angle, node 1, rad
        117     2.03940123320E-001,  -7.36070126295E-002,   9.76212263107E-001         F               0         Blade root 3 Z orientation angle, node 1, rad
        118     2.03928985596E+001                                                     F               0         Blade 1 X translation displacement, node 1, m
        119    -1.38025712967E+001                                                     F               0         Blade 1 Y translation displacement, node 1, m
        120    -8.53819465637E+000                                                     F               0         Blade 1 Z translation displacement, node 1, m
        121     2.00995712280E+001                                                     F               0         Blade 1 X translation displacement, node 2, m
        122    -1.49063692093E+001                                                     F               0         Blade 1 Y translation displacement, node 2, m
        123    -1.06006011963E+001                                                     F               0         Blade 1 Z translation displacement, node 2, m
        124     1.61108398438E+001                                                     F               0         Blade 1 X translation displacement, node 3, m
        125    -2.99160976410E+001                                                     F               0         Blade 1 Y translation displacement, node 3, m
        126    -3.86457824707E+001                                                     F               0         Blade 1 Z translation displacement, node 3, m
        127     1.52610158920E+001                                                     F               0         Blade 1 X translation displacement, node 4, m
        128    -3.31140098572E+001                                                     F               0         Blade 1 Y translation displacement, node 4, m
        129    -4.46209831238E+001                                                     F               0         Blade 1 Z translation displacement, node 4, m
        130     1.44110317230E+001                                                     F               0         Blade 1 X translation displacement, node 5, m
        131    -3.63125267029E+001                                                     F               0         Blade 1 Y translation displacement, node 5, m
        132    -5.05973052979E+001                                                     F               0         Blade 1 Z translation displacement, node 5, m
        133     1.35612049103E+001                                                     F               0         Blade 1 X translation displacement, node 6, m
        134    -3.95104522705E+001                                                     F               0         Blade 1 Y translation displacement, node 6, m
        135    -5.65725288391E+001                                                     F               0         Blade 1 Z translation displacement, node 6, m
        136     1.27113761902E+001                                                     F               0         Blade 1 X translation displacement, node 7, m
        137    -4.27083854675E+001                                                     F               0         Blade 1 Y translation displacement, node 7, m
        138    -6.25477600098E+001                                                     F               0         Blade 1 Z translation displacement, node 7, m
        139     1.18613948822E+001                                                     F               0         Blade 1 X translation displacement, node 8, m
        140    -4.59068946838E+001                                                     F               0         Blade 1 Y translation displacement, node 8, m
        141    -6.85240707397E+001                                                     F               0         Blade 1 Z translation displacement, node 8, m
        142     1.10115652084E+001                                                     F               0         Blade 1 X translation displacement, node 9, m
        143    -4.91048278809E+001                                                     F               0         Blade 1 Y translation displacement, node 9, m
        144    -7.44992980957E+001                                                     F               0         Blade 1 Z translation displacement, node 9, m
        145     1.01617383957E+001                                                     F               0         Blade 1 X translation displacement, node 10, m
        146    -5.23027534485E+001                                                     F               0         Blade 1 Y translation displacement, node 10, m
        147    -8.04745254517E+001                                                     F               0         Blade 1 Z translation displacement, node 10, m
        148     9.31190872192E+000                                                     F               0         Blade 1 X translation displacement, node 11, m
        149    -5.55006904602E+001                                                     F               0         Blade 1 Y translation displacement, node 11, m
        150    -8.64497604370E+001                                                     F               0         Blade 1 Z translation displacement, node 11, m
        151     8.46193122864E+000                                                     F               0         Blade 1 X translation displacement, node 12, m
        152    -5.86991844177E+001                                                     F               0         Blade 1 Y translation displacement, node 12, m
        153    -9.24260482788E+001                                                     F               0         Blade 1 Z translation displacement, node 12, m
        154     7.61210155487E+000                                                     F               0         Blade 1 X translation displacement, node 13, m
        155    -6.18971214294E+001                                                     F               0         Blade 1 Y translation displacement, node 13, m
        156    -9.84012756348E+001                                                     F               0         Blade 1 Z translation displacement, node 13, m
        157     6.76227521896E+000                                                     F               0         Blade 1 X translation displacement, node 14, m
        158    -6.50950469971E+001                                                     F               0         Blade 1 Y translation displacement, node 14, m
        159    -1.04376502991E+002                                                     F               0         Blade 1 Z translation displacement, node 14, m
        160     5.91229152679E+000                                                     F               0         Blade 1 X translation displacement, node 15, m
        161    -6.82935562134E+001                                                     F               0         Blade 1 Y translation displacement, node 15, m
        162    -1.10352821350E+002                                                     F               0         Blade 1 Z translation displacement, node 15, m
        163     5.06246471405E+000                                                     F               0         Blade 1 X translation displacement, node 16, m
        164    -7.14914855957E+001                                                     F               0         Blade 1 Y translation displacement, node 16, m
        165    -1.16328048706E+002                                                     F               0         Blade 1 Z translation displacement, node 16, m
        166     4.21263456345E+000                                                     F               0         Blade 1 X translation displacement, node 17, m
        167    -7.46894302368E+001                                                     F               0         Blade 1 Y translation displacement, node 17, m
        168    -1.22303283691E+002                                                     F               0         Blade 1 Z translation displacement, node 17, m
        169     3.36280775070E+000                                                     F               0         Blade 1 X translation displacement, node 18, m
        170    -7.78873519897E+001                                                     F               0         Blade 1 Y translation displacement, node 18, m
        171    -1.28278503418E+002                                                     F               0         Blade 1 Z translation displacement, node 18, m
        172     2.51282906532E+000                                                     F               0         Blade 1 X translation displacement, node 19, m
        173    -8.10858459473E+001                                                     F               0         Blade 1 Y translation displacement, node 19, m
        174    -1.34254791260E+002                                                     F               0         Blade 1 Z translation displacement, node 19, m
        175     1.66299891472E+000                                                     F               0         Blade 1 X translation displacement, node 20, m
        176    -8.42837829590E+001                                                     F               0         Blade 1 Y translation displacement, node 20, m
        177    -1.40230026245E+002                                                     F               0         Blade 1 Z translation displacement, node 20, m
        178     8.13171982765E-001                                                     F               0         Blade 1 X translation displacement, node 21, m
        179    -8.74817123413E+001                                                     F               0         Blade 1 Y translation displacement, node 21, m
        180    -1.46205261230E+002                                                     F               0         Blade 1 Z translation displacement, node 21, m
        181    -3.68099845946E-002                                                     F               0         Blade 1 X translation displacement, node 22, m
        182    -9.06802215576E+001                                                     F               0         Blade 1 Y translation displacement, node 22, m
        183    -1.52181564331E+002                                                     F               0         Blade 1 Z translation displacement, node 22, m