
Linearized model: Predictions were generated on 13-Feb-2024 at 12:12:09 using OpenFAST, compiled as a 64-bit application using single precision at commit v3.5.1
 linked with  NWTC Subroutine Library; ElastoDyn; InflowWind; AeroDyn; ServoDyn; HydroDyn; MAP++ (<1.20.10>, <Oct-20-2023>)

Description from the FAST input file: CCT-9 Campign 4 model. Input files to be run with OpenFAST 3.5.0. GitHub branch from Lu Wang (https://github.com/luwang00/openfast/tree/dev) compiled on March 7, 2023.

Simulation information:
   Simulation time:                   776.4000 s
   Rotor Speed:                         0.7922 rad/s
   Azimuth:                             4.7232 rad
   Wind Speed:                         24.0000 m/s
   Number of continuous states:         0
   Number of discrete states:           0
   Number of constraint states:         0
   Number of inputs:                  303
   Number of outputs:                   1
   Jacobians included in this file?    No

Order of inputs:
     Column   Operating Point                                                   Rotating Frame? Derivative Order Description
   ---------- ---------------                                                   --------------- ---------------- -----------
          1    -1.08005075455E+001                                                     F               0         X-component position of node 1 (hub), m
          2     0.00000000000E+000                                                     F               0         Y-component position of node 1 (hub), m
          3     1.49740173340E+002                                                     F               0         Z-component position of node 1 (hub), m
          4     1.08905687332E+001                                                     F               0         X-component position of node 2 (blade 1, node 1), m
          5    -3.68531370163E+000                                                     F               0         Y-component position of node 2 (blade 1, node 1), m
          6     1.50127105713E+002                                                     F               0         Z-component position of node 2 (blade 1, node 1), m
          7     1.09096965790E+001                                                     F               0         X-component position of node 3 (blade 1, node 2), m
          8    -2.35358977318E+000                                                     F               0         Y-component position of node 3 (blade 1, node 2), m
          9     1.50217224121E+002                                                     F               0         Z-component position of node 3 (blade 1, node 2), m
         10     1.11698074341E+001                                                     F               0         X-component position of node 4 (blade 1, node 3), m
         11     1.57555437088E+001                                                     F               0         Y-component position of node 4 (blade 1, node 3), m
         12     1.51442581177E+002                                                     F               0         Z-component position of node 4 (blade 1, node 3), m
         13     1.12252273560E+001                                                     F               0         X-component position of node 5 (blade 1, node 4), m
         14     1.96138019562E+001                                                     F               0         Y-component position of node 5 (blade 1, node 4), m
         15     1.51703643799E+002                                                     F               0         Z-component position of node 5 (blade 1, node 4), m
         16     1.12806549072E+001                                                     F               0         X-component position of node 6 (blade 1, node 5), m
         17     2.34727935791E+001                                                     F               0         Y-component position of node 6 (blade 1, node 5), m
         18     1.51964767456E+002                                                     F               0         Z-component position of node 6 (blade 1, node 5), m
         19     1.13360748291E+001                                                     F               0         X-component position of node 7 (blade 1, node 6), m
         20     2.73310661316E+001                                                     F               0         Y-component position of node 7 (blade 1, node 6), m
         21     1.52225830078E+002                                                     F               0         Z-component position of node 7 (blade 1, node 6), m
         22     1.13914928436E+001                                                     F               0         X-component position of node 8 (blade 1, node 7), m
         23     3.11893520355E+001                                                     F               0         Y-component position of node 8 (blade 1, node 7), m
         24     1.52486907959E+002                                                     F               0         Z-component position of node 8 (blade 1, node 7), m
         25     1.14469213486E+001                                                     F               0         X-component position of node 9 (blade 1, node 8), m
         26     3.50483283997E+001                                                     F               0         Y-component position of node 9 (blade 1, node 8), m
         27     1.52748016357E+002                                                     F               0         Z-component position of node 9 (blade 1, node 8), m
         28     1.15023393631E+001                                                     F               0         X-component position of node 10 (blade 1, node 9), m
         29     3.89066162109E+001                                                     F               0         Y-component position of node 10 (blade 1, node 9), m
         30     1.53009094238E+002                                                     F               0         Z-component position of node 10 (blade 1, node 9), m
         31     1.15577583313E+001                                                     F               0         X-component position of node 11 (blade 1, node 10), m
         32     4.27648925781E+001                                                     F               0         Y-component position of node 11 (blade 1, node 10), m
         33     1.53270172119E+002                                                     F               0         Z-component position of node 11 (blade 1, node 10), m
         34     1.16131763458E+001                                                     F               0         X-component position of node 12 (blade 1, node 11), m
         35     4.66231803894E+001                                                     F               0         Y-component position of node 12 (blade 1, node 11), m
         36     1.53531234741E+002                                                     F               0         Z-component position of node 12 (blade 1, node 11), m
         37     1.16686067581E+001                                                     F               0         X-component position of node 13 (blade 1, node 12), m
         38     5.04821395874E+001                                                     F               0         Y-component position of node 13 (blade 1, node 12), m
         39     1.53792358398E+002                                                     F               0         Z-component position of node 13 (blade 1, node 12), m
         40     1.17240247726E+001                                                     F               0         X-component position of node 14 (blade 1, node 13), m
         41     5.43404273987E+001                                                     F               0         Y-component position of node 14 (blade 1, node 13), m
         42     1.54053421021E+002                                                     F               0         Z-component position of node 14 (blade 1, node 13), m
         43     1.17794437408E+001                                                     F               0         X-component position of node 15 (blade 1, node 14), m
         44     5.81987037659E+001                                                     F               0         Y-component position of node 15 (blade 1, node 14), m
         45     1.54314498901E+002                                                     F               0         Z-component position of node 15 (blade 1, node 14), m
         46     1.18348712921E+001                                                     F               0         X-component position of node 16 (blade 1, node 15), m
         47     6.20576858521E+001                                                     F               0         Y-component position of node 16 (blade 1, node 15), m
         48     1.54575622559E+002                                                     F               0         Z-component position of node 16 (blade 1, node 15), m
         49     1.18902912140E+001                                                     F               0         X-component position of node 17 (blade 1, node 16), m
         50     6.59159622192E+001                                                     F               0         Y-component position of node 17 (blade 1, node 16), m
         51     1.54836685181E+002                                                     F               0         Z-component position of node 17 (blade 1, node 16), m
         52     1.19457092285E+001                                                     F               0         X-component position of node 18 (blade 1, node 17), m
         53     6.97742538452E+001                                                     F               0         Y-component position of node 18 (blade 1, node 17), m
         54     1.55097747803E+002                                                     F               0         Z-component position of node 18 (blade 1, node 17), m
         55     1.20011281967E+001                                                     F               0         X-component position of node 19 (blade 1, node 18), m
         56     7.36325302124E+001                                                     F               0         Y-component position of node 19 (blade 1, node 18), m
         57     1.55358825684E+002                                                     F               0         Z-component position of node 19 (blade 1, node 18), m
         58     1.20565567017E+001                                                     F               0         X-component position of node 20 (blade 1, node 19), m
         59     7.74914932251E+001                                                     F               0         Y-component position of node 20 (blade 1, node 19), m
         60     1.55619949341E+002                                                     F               0         Z-component position of node 20 (blade 1, node 19), m
         61     1.21119747162E+001                                                     F               0         X-component position of node 21 (blade 1, node 20), m
         62     8.13497848511E+001                                                     F               0         Y-component position of node 21 (blade 1, node 20), m
         63     1.55881011963E+002                                                     F               0         Z-component position of node 21 (blade 1, node 20), m
         64     1.21673936844E+001                                                     F               0         X-component position of node 22 (blade 1, node 21), m
         65     8.52080612183E+001                                                     F               0         Y-component position of node 22 (blade 1, node 21), m
         66     1.56142089844E+002                                                     F               0         Z-component position of node 22 (blade 1, node 21), m
         67     1.22228221893E+001                                                     F               0         X-component position of node 23 (blade 1, node 22), m
         68     8.90670394897E+001                                                     F               0         Y-component position of node 23 (blade 1, node 22), m
         69     1.56403198242E+002                                                     F               0         Z-component position of node 23 (blade 1, node 22), m
         70     1.22782402039E+001                                                     F               0         X-component position of node 24 (blade 1, node 23), m
         71     9.29253311157E+001                                                     F               0         Y-component position of node 24 (blade 1, node 23), m
         72     1.56664276123E+002                                                     F               0         Z-component position of node 24 (blade 1, node 23), m
         73     1.23336591721E+001                                                     F               0         X-component position of node 25 (blade 1, node 24), m
         74     9.67836074829E+001                                                     F               0         Y-component position of node 25 (blade 1, node 24), m
         75     1.56925338745E+002                                                     F               0         Z-component position of node 25 (blade 1, node 24), m
         76     1.23890781403E+001                                                     F               0         X-component position of node 26 (blade 1, node 25), m
         77     1.00641883850E+002                                                     F               0         Y-component position of node 26 (blade 1, node 25), m
         78     1.57186416626E+002                                                     F               0         Z-component position of node 26 (blade 1, node 25), m
         79     1.24445075989E+001                                                     F               0         X-component position of node 27 (blade 1, node 26), m
         80     1.04500862122E+002                                                     F               0         Y-component position of node 27 (blade 1, node 26), m
         81     1.57447525024E+002                                                     F               0         Z-component position of node 27 (blade 1, node 26), m
         82     1.24999256134E+001                                                     F               0         X-component position of node 28 (blade 1, node 27), m
         83     1.08359138489E+002                                                     F               0         Y-component position of node 28 (blade 1, node 27), m
         84     1.57708602905E+002                                                     F               0         Z-component position of node 28 (blade 1, node 27), m
         85     1.25469074249E+001                                                     F               0         X-component position of node 29 (blade 1, node 28), m
         86     1.11630134583E+002                                                     F               0         Y-component position of node 29 (blade 1, node 28), m
         87     1.57929931641E+002                                                     F               0         Z-component position of node 29 (blade 1, node 28), m
         88     1.17505674362E+001                                                     F               0         X-component position of node 30 (blade 2, node 1), m
         89    -1.23065862656E+001                                                     F               0         Y-component position of node 30 (blade 2, node 1), m
         90     1.54251281738E+002                                                     F               0         Z-component position of node 30 (blade 2, node 1), m
         91     1.19769182205E+001                                                     F               0         X-component position of node 31 (blade 2, node 2), m
         92    -1.30522174835E+001                                                     F               0         Y-component position of node 31 (blade 2, node 2), m
         93     1.55335144043E+002                                                     F               0         Z-component position of node 31 (blade 2, node 2), m
         94     1.50549068451E+001                                                     F               0         X-component position of node 32 (blade 2, node 3), m
         95    -2.31916198730E+001                                                     F               0         Y-component position of node 32 (blade 2, node 3), m
         96     1.70073822021E+002                                                     F               0         Z-component position of node 32 (blade 2, node 3), m
         97     1.57106933594E+001                                                     F               0         X-component position of node 33 (blade 2, node 4), m
         98    -2.53518943787E+001                                                     F               0         Y-component position of node 33 (blade 2, node 4), m
         99     1.73213989258E+002                                                     F               0         Z-component position of node 33 (blade 2, node 4), m
        100     1.63666019440E+001                                                     F               0         X-component position of node 34 (blade 2, node 5), m
        101    -2.75125484467E+001                                                     F               0         Y-component position of node 34 (blade 2, node 5), m
        102     1.76354736328E+002                                                     F               0         Z-component position of node 34 (blade 2, node 5), m
        103     1.70223903656E+001                                                     F               0         X-component position of node 35 (blade 2, node 6), m
        104    -2.96728229523E+001                                                     F               0         Y-component position of node 35 (blade 2, node 6), m
        105     1.79494918823E+002                                                     F               0         Z-component position of node 35 (blade 2, node 6), m
        106     1.76781768799E+001                                                     F               0         X-component position of node 36 (blade 2, node 7), m
        107    -3.18330974579E+001                                                     F               0         Y-component position of node 36 (blade 2, node 7), m
        108     1.82635101318E+002                                                     F               0         Z-component position of node 36 (blade 2, node 7), m
        109     1.83340854645E+001                                                     F               0         X-component position of node 37 (blade 2, node 8), m
        110    -3.39937515259E+001                                                     F               0         Y-component position of node 37 (blade 2, node 8), m
        111     1.85775848389E+002                                                     F               0         Z-component position of node 37 (blade 2, node 8), m
        112     1.89898719788E+001                                                     F               0         X-component position of node 38 (blade 2, node 9), m
        113    -3.61540260315E+001                                                     F               0         Y-component position of node 38 (blade 2, node 9), m
        114     1.88916030884E+002                                                     F               0         Z-component position of node 38 (blade 2, node 9), m
        115     1.96456604004E+001                                                     F               0         X-component position of node 39 (blade 2, node 10), m
        116    -3.83142929077E+001                                                     F               0         Y-component position of node 39 (blade 2, node 10), m
        117     1.92056213379E+002                                                     F               0         Z-component position of node 39 (blade 2, node 10), m
        118     2.03014488220E+001                                                     F               0         X-component position of node 40 (blade 2, node 11), m
        119    -4.04745674133E+001                                                     F               0         Y-component position of node 40 (blade 2, node 11), m
        120     1.95196395874E+002                                                     F               0         Z-component position of node 40 (blade 2, node 11), m
        121     2.09573574066E+001                                                     F               0         X-component position of node 41 (blade 2, node 12), m
        122    -4.26352195740E+001                                                     F               0         Y-component position of node 41 (blade 2, node 12), m
        123     1.98337142944E+002                                                     F               0         Z-component position of node 41 (blade 2, node 12), m
        124     2.16131439209E+001                                                     F               0         X-component position of node 42 (blade 2, node 13), m
        125    -4.47954940796E+001                                                     F               0         Y-component position of node 42 (blade 2, node 13), m
        126     2.01477310181E+002                                                     F               0         Z-component position of node 42 (blade 2, node 13), m
        127     2.22689342499E+001                                                     F               0         X-component position of node 43 (blade 2, node 14), m
        128    -4.69557609558E+001                                                     F               0         Y-component position of node 43 (blade 2, node 14), m
        129     2.04617492676E+002                                                     F               0         Z-component position of node 43 (blade 2, node 14), m
        130     2.29248390198E+001                                                     F               0         X-component position of node 44 (blade 2, node 15), m
        131    -4.91164283752E+001                                                     F               0         Y-component position of node 44 (blade 2, node 15), m
        132     2.07758255005E+002                                                     F               0         Z-component position of node 44 (blade 2, node 15), m
        133     2.35806255341E+001                                                     F               0         X-component position of node 45 (blade 2, node 16), m
        134    -5.12767028809E+001                                                     F               0         Y-component position of node 45 (blade 2, node 16), m
        135     2.10898422241E+002                                                     F               0         Z-component position of node 45 (blade 2, node 16), m
        136     2.42364139557E+001                                                     F               0         X-component position of node 46 (blade 2, node 17), m
        137    -5.34369735718E+001                                                     F               0         Y-component position of node 46 (blade 2, node 17), m
        138     2.14038604736E+002                                                     F               0         Z-component position of node 46 (blade 2, node 17), m
        139     2.48922004700E+001                                                     F               0         X-component position of node 47 (blade 2, node 18), m
        140    -5.55972404480E+001                                                     F               0         Y-component position of node 47 (blade 2, node 18), m
        141     2.17178787231E+002                                                     F               0         Z-component position of node 47 (blade 2, node 18), m
        142     2.55481090546E+001                                                     F               0         X-component position of node 48 (blade 2, node 19), m
        143    -5.77578964233E+001                                                     F               0         Y-component position of node 48 (blade 2, node 19), m
        144     2.20319534302E+002                                                     F               0         Z-component position of node 48 (blade 2, node 19), m
        145     2.62038974762E+001                                                     F               0         X-component position of node 49 (blade 2, node 20), m
        146    -5.99181709290E+001                                                     F               0         Y-component position of node 49 (blade 2, node 20), m
        147     2.23459716797E+002                                                     F               0         Z-component position of node 49 (blade 2, node 20), m
        148     2.68596878052E+001                                                     F               0         X-component position of node 50 (blade 2, node 21), m
        149    -6.20784416199E+001                                                     F               0         Y-component position of node 50 (blade 2, node 21), m
        150     2.26599899292E+002                                                     F               0         Z-component position of node 50 (blade 2, node 21), m
        151     2.75155925751E+001                                                     F               0         X-component position of node 51 (blade 2, node 22), m
        152    -6.42391052246E+001                                                     F               0         Y-component position of node 51 (blade 2, node 22), m
        153     2.29740646362E+002                                                     F               0         Z-component position of node 51 (blade 2, node 22), m
        154     2.81713790894E+001                                                     F               0         X-component position of node 52 (blade 2, node 23), m
        155    -6.63993759155E+001                                                     F               0         Y-component position of node 52 (blade 2, node 23), m
        156     2.32880813599E+002                                                     F               0         Z-component position of node 52 (blade 2, node 23), m
        157     2.88271675110E+001                                                     F               0         X-component position of node 53 (blade 2, node 24), m
        158    -6.85596466064E+001                                                     F               0         Y-component position of node 53 (blade 2, node 24), m
        159     2.36020996094E+002                                                     F               0         Z-component position of node 53 (blade 2, node 24), m
        160     2.94829559326E+001                                                     F               0         X-component position of node 54 (blade 2, node 25), m
        161    -7.07199172974E+001                                                     F               0         Y-component position of node 54 (blade 2, node 25), m
        162     2.39161178589E+002                                                     F               0         Z-component position of node 54 (blade 2, node 25), m
        163     3.01388607025E+001                                                     F               0         X-component position of node 55 (blade 2, node 26), m
        164    -7.28805847168E+001                                                     F               0         Y-component position of node 55 (blade 2, node 26), m
        165     2.42301925659E+002                                                     F               0         Z-component position of node 55 (blade 2, node 26), m
        166     3.07946491241E+001                                                     F               0         X-component position of node 56 (blade 2, node 27), m
        167    -7.50408554077E+001                                                     F               0         Y-component position of node 56 (blade 2, node 27), m
        168     2.45442108154E+002                                                     F               0         Z-component position of node 56 (blade 2, node 27), m
        169     3.13506164551E+001                                                     F               0         X-component position of node 57 (blade 2, node 28), m
        170    -7.68722915649E+001                                                     F               0         Y-component position of node 57 (blade 2, node 28), m
        171     2.48104293823E+002                                                     F               0         Z-component position of node 57 (blade 2, node 28), m
        172     9.79241657257E+000                                                     F               0         X-component position of node 58 (blade 3, node 1), m