
Linearized model: Predictions were generated on 12-Jan-2024 at 09:28:28 using OpenFAST, compiled as a 64-bit application using single precision at commit v3.5.1
 linked with  NWTC Subroutine Library; ElastoDyn; InflowWind; AeroDyn; ServoDyn; HydroDyn; MAP++ (<1.20.10>, <Oct-20-2023>)

Description from the FAST input file: CCT-9 Campign 4 model. Input files to be run with OpenFAST 3.5.0. GitHub branch from Lu Wang (https://github.com/luwang00/openfast/tree/dev) compiled on March 7, 2023.

Simulation information:
   Simulation time:                   505.9250 s
   Rotor Speed:                         0.8776 rad/s
   Azimuth:                             2.7700 rad
   Wind Speed:                         10.0000 m/s
   Number of continuous states:         0
   Number of discrete states:           0
   Number of constraint states:         0
   Number of inputs:                 1746
   Number of outputs:                   4
   Jacobians included in this file?    No

Order of inputs:
     Column   Operating Point                     Rotating Frame? Derivative Order Description
   ---------- ---------------                     --------------- ---------------- -----------
          1    1.099E+01                                 F               0         Tower X translation displacement, node 1, m
          2   -1.221E+00                                 F               0         Tower Y translation displacement, node 1, m
          3   -3.169E-01                                 F               0         Tower Z translation displacement, node 1, m
          4    1.246E+01                                 F               0         Tower X translation displacement, node 2, m
          5   -1.804E+00                                 F               0         Tower Y translation displacement, node 2, m
          6   -4.183E-01                                 F               0         Tower Z translation displacement, node 2, m
          7    1.395E+01                                 F               0         Tower X translation displacement, node 3, m
          8   -2.393E+00                                 F               0         Tower Y translation displacement, node 3, m
          9   -5.229E-01                                 F               0         Tower Z translation displacement, node 3, m
         10    1.546E+01                                 F               0         Tower X translation displacement, node 4, m
         11   -2.986E+00                                 F               0         Tower Y translation displacement, node 4, m
         12   -6.300E-01                                 F               0         Tower Z translation displacement, node 4, m
         13    1.699E+01                                 F               0         Tower X translation displacement, node 5, m
         14   -3.583E+00                                 F               0         Tower Y translation displacement, node 5, m
         15   -7.392E-01                                 F               0         Tower Z translation displacement, node 5, m
         16    1.853E+01                                 F               0         Tower X translation displacement, node 6, m
         17   -4.184E+00                                 F               0         Tower Y translation displacement, node 6, m
         18   -8.501E-01                                 F               0         Tower Z translation displacement, node 6, m
         19    2.008E+01                                 F               0         Tower X translation displacement, node 7, m
         20   -4.787E+00                                 F               0         Tower Y translation displacement, node 7, m
         21   -9.623E-01                                 F               0         Tower Z translation displacement, node 7, m
         22    2.163E+01                                 F               0         Tower X translation displacement, node 8, m
         23   -5.392E+00                                 F               0         Tower Y translation displacement, node 8, m
         24   -1.076E+00                                 F               0         Tower Z translation displacement, node 8, m
         25    2.319E+01                                 F               0         Tower X translation displacement, node 9, m
         26   -5.999E+00                                 F               0         Tower Y translation displacement, node 9, m
         27   -1.190E+00                                 F               0         Tower Z translation displacement, node 9, m
         28    2.476E+01                                 F               0         Tower X translation displacement, node 10, m
         29   -6.607E+00                                 F               0         Tower Y translation displacement, node 10, m
         30   -1.304E+00                                 F               0         Tower Z translation displacement, node 10, m
         31    2.632E+01                                 F               0         Tower X translation displacement, node 11, m
         32   -7.216E+00                                 F               0         Tower Y translation displacement, node 11, m
         33   -1.419E+00                                 F               0         Tower Z translation displacement, node 11, m
         34    9.930E-01,  9.994E-03, -1.177E-01         F               0         Tower X orientation angle, node 1, rad
         35   -4.382E-03,  9.988E-01,  4.786E-02         F               0         Tower Y orientation angle, node 1, rad
         36    1.180E-01, -4.701E-02,  9.919E-01         F               0         Tower Z orientation angle, node 1, rad
         37    9.928E-01,  1.008E-02, -1.195E-01         F               0         Tower X orientation angle, node 2, rad
         38   -4.328E-03,  9.988E-01,  4.831E-02         F               0         Tower Y orientation angle, node 2, rad
         39    1.199E-01, -4.744E-02,  9.917E-01         F               0         Tower Z orientation angle, node 2, rad
         40    9.926E-01,  1.016E-02, -1.212E-01         F               0         Tower X orientation angle, node 3, rad
         41   -4.279E-03,  9.988E-01,  4.871E-02         F               0         Tower Y orientation angle, node 3, rad
         42    1.215E-01, -4.783E-02,  9.914E-01         F               0         Tower Z orientation angle, node 3, rad
         43    9.924E-01,  1.023E-02, -1.225E-01         F               0         Tower X orientation angle, node 4, rad
         44   -4.236E-03,  9.988E-01,  4.906E-02         F               0         Tower Y orientation angle, node 4, rad
         45    1.229E-01, -4.817E-02,  9.912E-01         F               0         Tower Z orientation angle, node 4, rad
         46    9.923E-01,  1.028E-02, -1.237E-01         F               0         Tower X orientation angle, node 5, rad
         47   -4.198E-03,  9.988E-01,  4.937E-02         F               0         Tower Y orientation angle, node 5, rad
         48    1.240E-01, -4.847E-02,  9.911E-01         F               0         Tower Z orientation angle, node 5, rad
         49    9.922E-01,  1.033E-02, -1.246E-01         F               0         Tower X orientation angle, node 6, rad
         50   -4.166E-03,  9.988E-01,  4.962E-02         F               0         Tower Y orientation angle, node 6, rad
         51    1.249E-01, -4.871E-02,  9.910E-01         F               0         Tower Z orientation angle, node 6, rad
         52    9.921E-01,  1.036E-02, -1.253E-01         F               0         Tower X orientation angle, node 7, rad
         53   -4.140E-03,  9.987E-01,  4.982E-02         F               0         Tower Y orientation angle, node 7, rad
         54    1.256E-01, -4.891E-02,  9.909E-01         F               0         Tower Z orientation angle, node 7, rad
         55    9.920E-01,  1.039E-02, -1.258E-01         F               0         Tower X orientation angle, node 8, rad
         56   -4.120E-03,  9.987E-01,  4.998E-02         F               0         Tower Y orientation angle, node 8, rad
         57    1.261E-01, -4.906E-02,  9.908E-01         F               0         Tower Z orientation angle, node 8, rad
         58    9.920E-01,  1.040E-02, -1.261E-01         F               0         Tower X orientation angle, node 9, rad
         59   -4.106E-03,  9.987E-01,  5.010E-02         F               0         Tower Y orientation angle, node 9, rad
         60    1.265E-01, -4.918E-02,  9.908E-01         F               0         Tower Z orientation angle, node 9, rad
         61    9.919E-01,  1.041E-02, -1.263E-01         F               0         Tower X orientation angle, node 10, rad
         62   -4.096E-03,  9.987E-01,  5.017E-02         F               0         Tower Y orientation angle, node 10, rad
         63    1.267E-01, -4.925E-02,  9.907E-01         F               0         Tower Z orientation angle, node 10, rad
         64    9.919E-01,  1.042E-02, -1.264E-01         F               0         Tower X orientation angle, node 11, rad
         65   -4.091E-03,  9.987E-01,  5.022E-02         F               0         Tower Y orientation angle, node 11, rad
         66    1.268E-01, -4.929E-02,  9.907E-01         F               0         Tower Z orientation angle, node 11, rad
         67   -4.101E-03                                 F               0         Tower X translation velocity, node 1, m/s
         68    6.153E-03                                 F               0         Tower Y translation velocity, node 1, m/s
         69    5.030E-03                                 F               0         Tower Z translation velocity, node 1, m/s
         70   -4.052E-03                                 F               0         Tower X translation velocity, node 2, m/s
         71    9.270E-03                                 F               0         Tower Y translation velocity, node 2, m/s
         72    5.172E-03                                 F               0         Tower Z translation velocity, node 2, m/s
         73   -4.090E-03                                 F               0         Tower X translation velocity, node 3, m/s
         74    1.235E-02                                 F               0         Tower Y translation velocity, node 3, m/s
         75    5.325E-03                                 F               0         Tower Z translation velocity, node 3, m/s
         76   -4.200E-03                                 F               0         Tower X translation velocity, node 4, m/s
         77    1.539E-02                                 F               0         Tower Y translation velocity, node 4, m/s
         78    5.486E-03                                 F               0         Tower Z translation velocity, node 4, m/s
         79   -4.376E-03                                 F               0         Tower X translation velocity, node 5, m/s
         80    1.840E-02                                 F               0         Tower Y translation velocity, node 5, m/s
         81    5.655E-03                                 F               0         Tower Z translation velocity, node 5, m/s
         82   -4.609E-03                                 F               0         Tower X translation velocity, node 6, m/s
         83    2.139E-02                                 F               0         Tower Y translation velocity, node 6, m/s
         84    5.830E-03                                 F               0         Tower Z translation velocity, node 6, m/s
         85   -4.890E-03                                 F               0         Tower X translation velocity, node 7, m/s
         86    2.435E-02                                 F               0         Tower Y translation velocity, node 7, m/s
         87    6.012E-03                                 F               0         Tower Z translation velocity, node 7, m/s
         88   -5.214E-03                                 F               0         Tower X translation velocity, node 8, m/s
         89    2.730E-02                                 F               0         Tower Y translation velocity, node 8, m/s
         90    6.199E-03                                 F               0         Tower Z translation velocity, node 8, m/s
         91   -5.573E-03                                 F               0         Tower X translation velocity, node 9, m/s
         92    3.023E-02                                 F               0         Tower Y translation velocity, node 9, m/s
         93    6.390E-03                                 F               0         Tower Z translation velocity, node 9, m/s
         94   -5.957E-03                                 F               0         Tower X translation velocity, node 10, m/s
         95    3.316E-02                                 F               0         Tower Y translation velocity, node 10, m/s
         96    6.584E-03                                 F               0         Tower Z translation velocity, node 10, m/s
         97   -6.357E-03                                 F               0         Tower X translation velocity, node 11, m/s
         98    3.607E-02                                 F               0         Tower Y translation velocity, node 11, m/s
         99    6.780E-03                                 F               0         Tower Z translation velocity, node 11, m/s
        100    2.741E+01                                 F               0         Hub X translation displacement, node 1, m
        101   -7.716E+00                                 F               0         Hub Y translation displacement, node 1, m
        102   -1.264E-01                                 F               0         Hub Z translation displacement, node 1, m
        103    9.732E-01,  1.552E-02, -2.293E-01         F               0         Hub X orientation angle, node 1, rad
        104    8.723E-02, -9.480E-01,  3.061E-01         F               0         Hub Y orientation angle, node 1, rad
        105   -2.126E-01, -3.179E-01, -9.240E-01         F               0         Hub Z orientation angle, node 1, rad
        106    8.539E-01                                 F               0         Hub X rotation velocity, node 1, rad/s
        107    1.358E-02                                 F               0         Hub Y rotation velocity, node 1, rad/s
        108   -2.011E-01                                 F               0         Hub Z rotation velocity, node 1, rad/s
        109    9.702E-01,  4.363E-02, -2.383E-01         F               0         Blade root 1 X orientation angle, node 1, rad
        110    1.161E-01, -9.471E-01,  2.992E-01         F               0         Blade root 1 Y orientation angle, node 1, rad
        111   -2.126E-01, -3.179E-01, -9.240E-01         F               0         Blade root 1 Z orientation angle, node 1, rad
        112    9.796E-01,  9.615E-03, -2.009E-01         F               0         Blade root 2 X orientation angle, node 1, rad
        113   -1.988E-01,  1.990E-01, -9.596E-01         F               0         Blade root 2 Y orientation angle, node 1, rad
        114    3.076E-02,  9.799E-01,  1.969E-01         F               0         Blade root 2 Z orientation angle, node 1, rad
        115    9.686E-01, -6.722E-03, -2.484E-01         F               0         Blade root 3 X orientation angle, node 1, rad
        116    1.693E-01,  7.495E-01,  6.400E-01         F               0         Blade root 3 Y orientation angle, node 1, rad
        117    1.819E-01, -6.620E-01,  7.271E-01         F               0         Blade root 3 Z orientation angle, node 1, rad
        118    2.565E+01                                 F               0         Blade 1 X translation displacement, node 1, m
        119   -9.477E+00                                 F               0         Blade 1 Y translation displacement, node 1, m
        120   -1.075E+01                                 F               0         Blade 1 Z translation displacement, node 1, m
        121    2.523E+01                                 F               0         Blade 1 X translation displacement, node 2, m
        122   -9.902E+00                                 F               0         Blade 1 Y translation displacement, node 2, m
        123   -1.332E+01                                 F               0         Blade 1 Z translation displacement, node 2, m
        124    1.947E+01                                 F               0         Blade 1 X translation displacement, node 3, m
        125   -1.567E+01                                 F               0         Blade 1 Y translation displacement, node 3, m
        126   -4.814E+01                                 F               0         Blade 1 Z translation displacement, node 3, m
        127    1.824E+01                                 F               0         Blade 1 X translation displacement, node 4, m
        128   -1.690E+01                                 F               0         Blade 1 Y translation displacement, node 4, m
        129   -5.556E+01                                 F               0         Blade 1 Z translation displacement, node 4, m
        130    1.702E+01                                 F               0         Blade 1 X translation displacement, node 5, m
        131   -1.813E+01                                 F               0         Blade 1 Y translation displacement, node 5, m
        132   -6.298E+01                                 F               0         Blade 1 Z translation displacement, node 5, m
        133    1.579E+01                                 F               0         Blade 1 X translation displacement, node 6, m
        134   -1.936E+01                                 F               0         Blade 1 Y translation displacement, node 6, m
        135   -7.040E+01                                 F               0         Blade 1 Z translation displacement, node 6, m
        136    1.456E+01                                 F               0         Blade 1 X translation displacement, node 7, m
        137   -2.059E+01                                 F               0         Blade 1 Y translation displacement, node 7, m
        138   -7.782E+01                                 F               0         Blade 1 Z translation displacement, node 7, m
        139    1.334E+01                                 F               0         Blade 1 X translation displacement, node 8, m
        140   -2.182E+01                                 F               0         Blade 1 Y translation displacement, node 8, m
        141   -8.524E+01                                 F               0         Blade 1 Z translation displacement, node 8, m
        142    1.211E+01                                 F               0         Blade 1 X translation displacement, node 9, m
        143   -2.305E+01                                 F               0         Blade 1 Y translation displacement, node 9, m
        144   -9.266E+01                                 F               0         Blade 1 Z translation displacement, node 9, m
        145    1.088E+01                                 F               0         Blade 1 X translation displacement, node 10, m
        146   -2.428E+01                                 F               0         Blade 1 Y translation displacement, node 10, m
        147   -1.001E+02                                 F               0         Blade 1 Z translation displacement, node 10, m
        148    9.657E+00                                 F               0         Blade 1 X translation displacement, node 11, m
        149   -2.551E+01                                 F               0         Blade 1 Y translation displacement, node 11, m
        150   -1.075E+02                                 F               0         Blade 1 Z translation displacement, node 11, m
        151    8.431E+00                                 F               0         Blade 1 X translation displacement, node 12, m
        152   -2.674E+01                                 F               0         Blade 1 Y translation displacement, node 12, m
        153   -1.149E+02                                 F               0         Blade 1 Z translation displacement, node 12, m
        154    7.204E+00                                 F               0         Blade 1 X translation displacement, node 13, m
        155   -2.797E+01                                 F               0         Blade 1 Y translation displacement, node 13, m
        156   -1.223E+02                                 F               0         Blade 1 Z translation displacement, node 13, m
        157    5.977E+00                                 F               0         Blade 1 X translation displacement, node 14, m
        158   -2.920E+01                                 F               0         Blade 1 Y translation displacement, node 14, m
        159   -1.298E+02                                 F               0         Blade 1 Z translation displacement, node 14, m
        160    4.751E+00                                 F               0         Blade 1 X translation displacement, node 15, m
        161   -3.043E+01                                 F               0         Blade 1 Y translation displacement, node 15, m
        162   -1.372E+02                                 F               0         Blade 1 Z translation displacement, node 15, m
        163    3.524E+00                                 F               0         Blade 1 X translation displacement, node 16, m
        164   -3.166E+01                                 F               0         Blade 1 Y translation displacement, node 16, m
        165   -1.446E+02                                 F               0         Blade 1 Z translation displacement, node 16, m
        166    2.298E+00                                 F               0         Blade 1 X translation displacement, node 17, m
        167   -3.289E+01                                 F               0         Blade 1 Y translation displacement, node 17, m
        168   -1.520E+02                                 F               0         Blade 1 Z translation displacement, node 17, m
        169    1.071E+00                                 F               0         Blade 1 X translation displacement, node 18, m
        170   -3.412E+01                                 F               0         Blade 1 Y translation displacement, node 18, m
        171   -1.594E+02                                 F               0         Blade 1 Z translation displacement, node 18, m
        172   -1.557E-01                                 F               0         Blade 1 X translation displacement, node 19, m
        173   -3.535E+01                                 F               0         Blade 1 Y translation displacement, node 19, m
        174   -1.669E+02                                 F               0         Blade 1 Z translation displacement, node 19, m
        175   -1.382E+00                                 F               0         Blade 1 X translation displacement, node 20, m
        176   -3.658E+01                                 F               0         Blade 1 Y translation displacement, node 20, m
        177   -1.743E+02                                 F               0         Blade 1 Z translation displacement, node 20, m
        178   -2.609E+00                                 F               0         Blade 1 X translation displacement, node 21, m
        179   -3.781E+01                                 F               0         Blade 1 Y translation displacement, node 21, m
        180   -1.817E+02                                 F               0         Blade 1 Z translation displacement, node 21, m
        181   -3.836E+00                                 F               0         Blade 1 X translation displacement, node 22, m
        182   -3.904E+01                                 F               0         Blade 1 Y translation displacement, node 22, m
        183   -1.891E+02                                 F               0         Blade 1 Z translation displacement, node 22, m
        184   -5.062E+00                                 F               0         Blade 1 X translation displacement, node 23, m
        185   -4.027E+01                                 F               0         Blade 1 Y translation displacement, node 23, m
        186   -1.965E+02                                 F               0         Blade 1 Z translation displacement, node 23, m
        187   -6.289E+00                                 F               0         Blade 1 X translation displacement, node 24, m
        188   -4.150E+01                                 F               0         Blade 1 Y translation displacement, node 24, m
        189   -2.040E+02                                 F               0         Blade 1 Z translation displacement, node 24, m
        190   -7.515E+00                                 F               0         Blade 1 X translation displacement, node 25, m
        191   -4.273E+01                                 F               0         Blade 1 Y translation displacement, node 25, m
        192   -2.114E+02                                 F               0         Blade 1 Z translation displacement, node 25, m
        193   -8.742E+00                                 F               0         Blade 1 X translation displacement, node 26, m
        194   -4.396E+01                                 F               0         Blade 1 Y translation displacement, node 26, m
        195   -2.188E+02                                 F               0         Blade 1 Z translation displacement, node 26, m
        196   -9.968E+00                                 F               0         Blade 1 X translation displacement, node 27, m
        197   -4.518E+01                                 F               0         Blade 1 Y translation displacement, node 27, m
        198   -2.262E+02                                 F               0         Blade 1 Z translation displacement, node 27, m
        199   -1.101E+01                                 F               0         Blade 1 X translation displacement, node 28, m
        200   -4.623E+01                                 F               0         Blade 1 Y translation displacement, node 28, m
        201   -2.325E+02                                 F               0         Blade 1 Z translation displacement, node 28, m
        202    8.105E-01,  4.707E-01, -3.485E-01         F               0         Blade 1 X orientation angle, node 1, rad
        203    5.457E-01, -8.230E-01,  1.576E-01         F               0         Blade 1 Y orientation angle, node 1, rad
        204   -2.126E-01, -3.179E-01, -9.240E-01         F               0         Blade 1 Z orientation angle, node 1, rad
        205    8.105E-01,  4.707E-01, -3.485E-01         F               0         Blade 1 X orientation angle, node 2, rad
        206    5.457E-01, -8.230E-01,  1.576E-01         F               0         Blade 1 Y orientation angle, node 2, rad
        207   -2.126E-01, -3.179E-01, -9.240E-01         F               0         Blade 1 Z orientation angle, node 2, rad
        208    9.168E-01,  2.623E-01, -3.012E-01         F               0         Blade 1 X orientation angle, node 3, rad
        209    3.381E-01, -9.111E-01,  2.357E-01         F               0         Blade 1 Y orientation angle, node 3, rad
        210   -2.126E-01, -3.179E-01, -9.240E-01         F               0         Blade 1 Z orientation angle, node 3, rad
        211    9.302E-01,  2.235E-01, -2.910E-01         F               0         Blade 1 X orientation angle, node 4, rad
        212    2.991E-01, -9.214E-01,  2.482E-01         F               0         Blade 1 Y orientation angle, node 4, rad
        213   -2.126E-01, -3.179E-01, -9.240E-01         F               0         Blade 1 Z orientation angle, node 4, rad
        214    9.397E-01,  1.929E-01, -2.826E-01         F               0         Blade 1 X orientation angle, node 5, rad
        215    2.681E-01, -9.283E-01,  2.577E-01         F               0         Blade 1 Y orientation angle, node 5, rad
        216   -2.126E-01, -3.179E-01, -9.240E-01         F               0         Blade 1 Z orientation angle, node 5, rad
        217    9.464E-01,  1.682E-01, -2.757E-01         F               0         Blade 1 X orientation angle, node 6, rad
        218    2.430E-01, -9.331E-01,  2.651E-01         F               0         Blade 1 Y orientation angle, node 6, rad
        219   -2.126E-01, -3.179E-01, -9.240E-01         F               0         Blade 1 Z orientation angle, node 6, rad
        220    9.515E-01,  1.478E-01, -2.698E-01         F               0         Blade 1 X orientation angle, node 7, rad
        221    2.223E-01, -9.365E-01,  2.711E-01         F               0         Blade 1 Y orientation angle, node 7, rad
        222   -2.126E-01, -3.179E-01, -9.240E-01         F               0         Blade 1 Z orientation angle, node 7, rad
        223    9.554E-01,  1.308E-01, -2.648E-01         F               0         Blade 1 X orientation angle, node 8, rad
        224    2.050E-01, -9.391E-01,  2.759E-01         F               0         Blade 1 Y orientation angle, node 8, rad
        225   -2.126E-01, -3.179E-01, -9.240E-01         F               0         Blade 1 Z orientation angle, node 8, rad
        226    9.584E-01,  1.163E-01, -2.606E-01         F               0         Blade 1 X orientation angle, node 9, rad
        227    1.903E-01, -9.410E-01,  2.800E-01         F               0         Blade 1 Y orientation angle, node 9, rad