
Linearized model: Predictions were generated on 13-Feb-2024 at 12:12:09 using OpenFAST, compiled as a 64-bit application using single precision at commit v3.5.1
 linked with  NWTC Subroutine Library; ElastoDyn; InflowWind; AeroDyn; ServoDyn; HydroDyn; MAP++ (<1.20.10>, <Oct-20-2023>)

Description from the FAST input file: CCT-9 Campign 4 model. Input files to be run with OpenFAST 3.5.0. GitHub branch from Lu Wang (https://github.com/luwang00/openfast/tree/dev) compiled on March 7, 2023.

Simulation information:
   Simulation time:                   770.4500 s
   Rotor Speed:                         0.7915 rad/s
   Azimuth:                             0.0116 rad
   Wind Speed:                         24.0000 m/s
   Number of continuous states:        22
   Number of discrete states:           0
   Number of constraint states:         0
   Number of inputs:                 1890
   Number of outputs:                  25
   Jacobians included in this file?    No

Order of continuous states:
   Row/Column Operating Point                                                   Rotating Frame? Derivative Order Description
   ---------- ---------------                                                   --------------- ---------------- -----------
          1     6.82600736618E+000                                                     F               2         Platform horizontal surge translation DOF (internal DOF index = DOF_Sg), m
          2    -8.27325403690E-001                                                     F               2         Platform horizontal sway translation DOF (internal DOF index = DOF_Sw), m
          3    -1.07975311577E-001                                                     F               2         Platform vertical heave translation DOF (internal DOF index = DOF_Hv), m
          4     5.43471090496E-002                                                     F               2         Platform roll tilt rotation DOF (internal DOF index = DOF_R), rad
          5     9.51891988516E-002                                                     F               2         Platform pitch tilt rotation DOF (internal DOF index = DOF_P), rad
          6    -9.30252578110E-003                                                     F               2         Platform yaw rotation DOF (internal DOF index = DOF_Y), rad
          7     5.58940052986E-001                                                     F               2         1st tower fore-aft bending mode DOF (internal DOF index = DOF_TFA1), m
          8     2.76861757040E-001                                                     F               2         1st tower side-to-side bending mode DOF (internal DOF index = DOF_TSS1), m
          9     1.48418464232E-003                                                     F               2         2nd tower fore-aft bending mode DOF (internal DOF index = DOF_TFA2), m
         10    -3.01535910694E-004                                                     F               2         2nd tower side-to-side bending mode DOF (internal DOF index = DOF_TSS2), m
         11     4.72396707535E+000                                                     F               2         Variable speed generator DOF (internal DOF index = DOF_GeAz), rad
         12    -5.82207180560E-003                                                     F               2         First time derivative of Platform horizontal surge translation DOF (internal DOF index = DOF_Sg), m/s
         13    -4.42658521933E-004                                                     F               2         First time derivative of Platform horizontal sway translation DOF (internal DOF index = DOF_Sw), m/s
         14     3.00165265799E-003                                                     F               2         First time derivative of Platform vertical heave translation DOF (internal DOF index = DOF_Hv), m/s
         15     4.20159558416E-005                                                     F               2         First time derivative of Platform roll tilt rotation DOF (internal DOF index = DOF_R), rad/s
         16    -2.37391795963E-004                                                     F               2         First time derivative of Platform pitch tilt rotation DOF (internal DOF index = DOF_P), rad/s
         17    -2.91913675028E-005                                                     F               2         First time derivative of Platform yaw rotation DOF (internal DOF index = DOF_Y), rad/s
         18     4.95813079178E-002                                                     F               2         First time derivative of 1st tower fore-aft bending mode DOF (internal DOF index = DOF_TFA1), m/s
         19    -3.53608513251E-003                                                     F               2         First time derivative of 1st tower side-to-side bending mode DOF (internal DOF index = DOF_TSS1), m/s
         20    -1.48929626448E-004                                                     F               2         First time derivative of 2nd tower fore-aft bending mode DOF (internal DOF index = DOF_TFA2), m/s
         21    -7.19549234418E-006                                                     F               2         First time derivative of 2nd tower side-to-side bending mode DOF (internal DOF index = DOF_TSS2), m/s
         22     7.91457116604E-001                                                     F               2         First time derivative of Variable speed generator DOF (internal DOF index = DOF_GeAz), rad/s

Order of continuous state derivatives:
   Row/Column Operating Point                                                   Rotating Frame? Derivative Order Description
   ---------- ---------------                                                   --------------- ---------------- -----------
          1    -5.82207180560E-003                                                     F               2         First time derivative of Platform horizontal surge translation DOF (internal DOF index = DOF_Sg), m/s
          2    -4.42658521933E-004                                                     F               2         First time derivative of Platform horizontal sway translation DOF (internal DOF index = DOF_Sw), m/s
          3     3.00165265799E-003                                                     F               2         First time derivative of Platform vertical heave translation DOF (internal DOF index = DOF_Hv), m/s
          4     4.20159558416E-005                                                     F               2         First time derivative of Platform roll tilt rotation DOF (internal DOF index = DOF_R), rad/s
          5    -2.37391795963E-004                                                     F               2         First time derivative of Platform pitch tilt rotation DOF (internal DOF index = DOF_P), rad/s
          6    -2.91913675028E-005                                                     F               2         First time derivative of Platform yaw rotation DOF (internal DOF index = DOF_Y), rad/s
          7     4.95813079178E-002                                                     F               2         First time derivative of 1st tower fore-aft bending mode DOF (internal DOF index = DOF_TFA1), m/s
          8    -3.53608513251E-003                                                     F               2         First time derivative of 1st tower side-to-side bending mode DOF (internal DOF index = DOF_TSS1), m/s
          9    -1.48929626448E-004                                                     F               2         First time derivative of 2nd tower fore-aft bending mode DOF (internal DOF index = DOF_TFA2), m/s
         10    -7.19549234418E-006                                                     F               2         First time derivative of 2nd tower side-to-side bending mode DOF (internal DOF index = DOF_TSS2), m/s
         11     7.91457116604E-001                                                     F               2         First time derivative of Variable speed generator DOF (internal DOF index = DOF_GeAz), rad/s
         12     5.02895843238E-003                                                     F               2         First time derivative of First time derivative of Platform horizontal surge translation DOF (internal DOF index = DOF_Sg), m/s/s
         13    -3.66559159011E-003                                                     F               2         First time derivative of First time derivative of Platform horizontal sway translation DOF (internal DOF index = DOF_Sw), m/s/s
         14    -1.38383405283E-003                                                     F               2         First time derivative of First time derivative of Platform vertical heave translation DOF (internal DOF index = DOF_Hv), m/s/s
         15     2.31254874961E-004                                                     F               2         First time derivative of First time derivative of Platform roll tilt rotation DOF (internal DOF index = DOF_R), rad/s/s
         16     2.64333153609E-004                                                     F               2         First time derivative of First time derivative of Platform pitch tilt rotation DOF (internal DOF index = DOF_P), rad/s/s
         17     1.68533588294E-005                                                     F               2         First time derivative of First time derivative of Platform yaw rotation DOF (internal DOF index = DOF_Y), rad/s/s
         18    -5.81305548549E-002                                                     F               2         First time derivative of First time derivative of 1st tower fore-aft bending mode DOF (internal DOF index = DOF_TFA1), m/s/s
         19    -5.06474561989E-002                                                     F               2         First time derivative of First time derivative of 1st tower side-to-side bending mode DOF (internal DOF index = DOF_TSS1), m/s/s
         20    -2.03911191784E-003                                                     F               2         First time derivative of First time derivative of 2nd tower fore-aft bending mode DOF (internal DOF index = DOF_TFA2), m/s/s
         21     2.65933456831E-004                                                     F               2         First time derivative of First time derivative of 2nd tower side-to-side bending mode DOF (internal DOF index = DOF_TSS2), m/s/s
         22     6.92541478202E-004                                                     F               2         First time derivative of First time derivative of Variable speed generator DOF (internal DOF index = DOF_GeAz), rad/s/s

Order of inputs:
     Column   Operating Point                                                   Rotating Frame? Derivative Order Description
   ---------- ---------------                                                   --------------- ---------------- -----------
          1     3.68654327393E+002                                                     F               0         Blade 1 X force, node 1, N
          2     1.23677627563E+002                                                     F               0         Blade 1 Y force, node 1, N
          3    -6.81694335938E+001                                                     F               0         Blade 1 Z force, node 1, N
          4     1.44250231934E+003                                                     F               0         Blade 1 X force, node 2, N
          5     1.95678421021E+002                                                     F               0         Blade 1 Y force, node 2, N
          6    -2.87376281738E+002                                                     F               0         Blade 1 Z force, node 2, N
          7     1.60925244141E+003                                                     F               0         Blade 1 X force, node 3, N
          8    -1.66232025146E+002                                                     F               0         Blade 1 Y force, node 3, N
          9    -3.48125854492E+002                                                     F               0         Blade 1 Z force, node 3, N
         10     1.92606213379E+003                                                     F               0         Blade 1 X force, node 4, N
         11    -5.09263427734E+002                                                     F               0         Blade 1 Y force, node 4, N
         12    -4.38876068115E+002                                                     F               0         Blade 1 Z force, node 4, N
         13     2.24288818359E+003                                                     F               0         Blade 1 X force, node 5, N
         14    -8.52302001953E+002                                                     F               0         Blade 1 Y force, node 5, N
         15    -5.29630249023E+002                                                     F               0         Blade 1 Z force, node 5, N
         16     2.55970117188E+003                                                     F               0         Blade 1 X force, node 6, N
         17    -1.19533728027E+003                                                     F               0         Blade 1 Y force, node 6, N
         18    -6.20381408691E+002                                                     F               0         Blade 1 Z force, node 6, N
         19     2.87649511719E+003                                                     F               0         Blade 1 X force, node 7, N
         20    -1.53836218262E+003                                                     F               0         Blade 1 Y force, node 7, N
         21    -7.11127990723E+002                                                     F               0         Blade 1 Z force, node 7, N
         22     3.19330444336E+003                                                     F               0         Blade 1 X force, node 8, N
         23    -1.88139367676E+003                                                     F               0         Blade 1 Y force, node 8, N
         24    -8.01878112793E+002                                                     F               0         Blade 1 Z force, node 8, N
         25     3.51011450195E+003                                                     F               0         Blade 1 X force, node 9, N
         26    -2.22442529297E+003                                                     F               0         Blade 1 Y force, node 9, N
         27    -8.92628417969E+002                                                     F               0         Blade 1 Z force, node 9, N
         28     3.82692407227E+003                                                     F               0         Blade 1 X force, node 10, N
         29    -2.56745654297E+003                                                     F               0         Blade 1 Y force, node 10, N
         30    -9.83378662109E+002                                                     F               0         Blade 1 Z force, node 10, N
         31     4.14373388672E+003                                                     F               0         Blade 1 X force, node 11, N
         32    -2.91048828125E+003                                                     F               0         Blade 1 Y force, node 11, N
         33    -1.07412890625E+003                                                     F               0         Blade 1 Z force, node 11, N
         34     4.46057470703E+003                                                     F               0         Blade 1 X force, node 12, N
         35    -3.25354272461E+003                                                     F               0         Blade 1 Y force, node 12, N
         36    -1.16488732910E+003                                                     F               0         Blade 1 Z force, node 12, N
         37     4.77738769531E+003                                                     F               0         Blade 1 X force, node 13, N
         38    -3.59657763672E+003                                                     F               0         Blade 1 Y force, node 13, N
         39    -1.25563830566E+003                                                     F               0         Blade 1 Z force, node 13, N
         40     5.09416699219E+003                                                     F               0         Blade 1 X force, node 14, N
         41    -3.93958691406E+003                                                     F               0         Blade 1 Y force, node 14, N
         42    -1.34638073730E+003                                                     F               0         Blade 1 Z force, node 14, N
         43     5.41101269531E+003                                                     F               0         Blade 1 X force, node 15, N
         44    -4.28264697266E+003                                                     F               0         Blade 1 Y force, node 15, N
         45    -1.43714038086E+003                                                     F               0         Blade 1 Z force, node 15, N
         46     5.72778515625E+003                                                     F               0         Blade 1 X force, node 16, N
         47    -4.62564892578E+003                                                     F               0         Blade 1 Y force, node 16, N
         48    -1.52788098145E+003                                                     F               0         Blade 1 Z force, node 16, N
         49     7.01397412109E+003                                                     F               0         Blade 1 X force, node 17, N
         50    -5.75636767578E+003                                                     F               0         Blade 1 Y force, node 17, N
         51    -1.87755822754E+003                                                     F               0         Blade 1 Z force, node 17, N
         52     5.38192773438E+003                                                     F               0         Blade 1 X force, node 18, N
         53    -4.37492675781E+003                                                     F               0         Blade 1 Y force, node 18, N
         54    -1.43767041016E+003                                                     F               0         Blade 1 Z force, node 18, N
         55     6.65549169922E+003                                                     F               0         Blade 1 X force, node 19, N
         56    -5.31744384766E+003                                                     F               0         Blade 1 Y force, node 19, N
         57    -1.77123608398E+003                                                     F               0         Blade 1 Z force, node 19, N
         58     5.71468847656E+003                                                     F               0         Blade 1 X force, node 20, N
         59    -4.49331152344E+003                                                     F               0         Blade 1 Y force, node 20, N
         60    -1.51567028809E+003                                                     F               0         Blade 1 Z force, node 20, N
         61     8.42018847656E+003                                                     F               0         Blade 1 X force, node 21, N
         62    -6.48874462891E+003                                                     F               0         Blade 1 Y force, node 21, N
         63    -2.22379467773E+003                                                     F               0         Blade 1 Z force, node 21, N
         64     7.27694628906E+003                                                     F               0         Blade 1 X force, node 22, N
         65    -5.47230371094E+003                                                     F               0         Blade 1 Y force, node 22, N
         66    -1.91216479492E+003                                                     F               0         Blade 1 Z force, node 22, N
         67     7.32322558594E+003                                                     F               0         Blade 1 X force, node 23, N
         68    -5.38089404297E+003                                                     F               0         Blade 1 Y force, node 23, N
         69    -1.91528979492E+003                                                     F               0         Blade 1 Z force, node 23, N
         70     7.49516845703E+003                                                     F               0         Blade 1 X force, node 24, N
         71    -5.38153759766E+003                                                     F               0         Blade 1 Y force, node 24, N
         72    -1.95126025391E+003                                                     F               0         Blade 1 Z force, node 24, N
         73     7.52158349609E+003                                                     F               0         Blade 1 X force, node 25, N
         74    -5.28129394531E+003                                                     F               0         Blade 1 Y force, node 25, N
         75    -1.94960241699E+003                                                     F               0         Blade 1 Z force, node 25, N
         76     7.58738281250E+003                                                     F               0         Blade 1 X force, node 26, N
         77    -5.21060595703E+003                                                     F               0         Blade 1 Y force, node 26, N
         78    -1.95828942871E+003                                                     F               0         Blade 1 Z force, node 26, N
         79     8.90122558594E+003                                                     F               0         Blade 1 X force, node 27, N
         80    -5.96997753906E+003                                                     F               0         Blade 1 Y force, node 27, N
         81    -2.28715893555E+003                                                     F               0         Blade 1 Z force, node 27, N
         82     6.45868017578E+003                                                     F               0         Blade 1 X force, node 28, N
         83    -4.23209863281E+003                                                     F               0         Blade 1 Y force, node 28, N
         84    -1.65241345215E+003                                                     F               0         Blade 1 Z force, node 28, N
         85     7.75706884766E+003                                                     F               0         Blade 1 X force, node 29, N
         86    -4.98258593750E+003                                                     F               0         Blade 1 Y force, node 29, N
         87    -1.97741772461E+003                                                     F               0         Blade 1 Z force, node 29, N
         88     6.48320312500E+003                                                     F               0         Blade 1 X force, node 30, N
         89    -4.08185302734E+003                                                     F               0         Blade 1 Y force, node 30, N
         90    -1.64678051758E+003                                                     F               0         Blade 1 Z force, node 30, N
         91     9.17545019531E+003                                                     F               0         Blade 1 X force, node 31, N
         92    -5.63977490234E+003                                                     F               0         Blade 1 Y force, node 31, N
         93    -2.32081323242E+003                                                     F               0         Blade 1 Z force, node 31, N
         94     7.89413330078E+003                                                     F               0         Blade 1 X force, node 32, N
         95    -4.73228320312E+003                                                     F               0         Blade 1 Y force, node 32, N
         96    -1.98813525391E+003                                                     F               0         Blade 1 Z force, node 32, N
         97     7.93434033203E+003                                                     F               0         Blade 1 X force, node 33, N
         98    -4.64424365234E+003                                                     F               0         Blade 1 Y force, node 33, N
         99    -1.99023278809E+003                                                     F               0         Blade 1 Z force, node 33, N
        100     7.96935058594E+003                                                     F               0         Blade 1 X force, node 34, N
        101    -4.55402783203E+003                                                     F               0         Blade 1 Y force, node 34, N
        102    -1.99108898926E+003                                                     F               0         Blade 1 Z force, node 34, N
        103     7.97544433594E+003                                                     F               0         Blade 1 X force, node 35, N
        104    -4.45035791016E+003                                                     F               0         Blade 1 Y force, node 35, N
        105    -1.98494006348E+003                                                     F               0         Blade 1 Z force, node 35, N
        106     7.97218701172E+003                                                     F               0         Blade 1 X force, node 36, N
        107    -4.34213769531E+003                                                     F               0         Blade 1 Y force, node 36, N
        108    -1.97651159668E+003                                                     F               0         Blade 1 Z force, node 36, N
        109     9.30643066406E+003                                                     F               0         Blade 1 X force, node 37, N
        110    -4.93761425781E+003                                                     F               0         Blade 1 Y force, node 37, N
        111    -2.29790991211E+003                                                     F               0         Blade 1 Z force, node 37, N
        112     6.58221972656E+003                                                     F               0         Blade 1 X force, node 38, N
        113    -3.40767431641E+003                                                     F               0         Blade 1 Y force, node 38, N
        114    -1.61920190430E+003                                                     F               0         Blade 1 Z force, node 38, N
        115     7.85189648438E+003                                                     F               0         Blade 1 X force, node 39, N
        116    -3.98196826172E+003                                                     F               0         Blade 1 Y force, node 39, N
        117    -1.92559362793E+003                                                     F               0         Blade 1 Z force, node 39, N
        118     6.51780078125E+003                                                     F               0         Blade 1 X force, node 40, N
        119    -3.23509838867E+003                                                     F               0         Blade 1 Y force, node 40, N
        120    -1.59338769531E+003                                                     F               0         Blade 1 Z force, node 40, N
        121     8.95519531250E+003                                                     F               0         Blade 1 X force, node 41, N
        122    -4.33502246094E+003                                                     F               0         Blade 1 Y force, node 41, N
        123    -2.18138452148E+003                                                     F               0         Blade 1 Z force, node 41, N
        124     7.57471679688E+003                                                     F               0         Blade 1 X force, node 42, N
        125    -3.57950830078E+003                                                     F               0         Blade 1 Y force, node 42, N
        126    -1.83886901855E+003                                                     F               0         Blade 1 Z force, node 42, N
        127     7.45480517578E+003                                                     F               0         Blade 1 X force, node 43, N
        128    -3.44020068359E+003                                                     F               0         Blade 1 Y force, node 43, N
        129    -1.80384191895E+003                                                     F               0         Blade 1 Z force, node 43, N
        130     7.36754589844E+003                                                     F               0         Blade 1 X force, node 44, N
        131    -3.31777416992E+003                                                     F               0         Blade 1 Y force, node 44, N
        132    -1.77684606934E+003                                                     F               0         Blade 1 Z force, node 44, N
        133     7.14186425781E+003                                                     F               0         Blade 1 X force, node 45, N
        134    -3.14299096680E+003                                                     F               0         Blade 1 Y force, node 45, N