
Linearized model: Predictions were generated on 12-Jan-2024 at 09:28:28 using OpenFAST, compiled as a 64-bit application using single precision at commit v3.5.1
 linked with  NWTC Subroutine Library; ElastoDyn; InflowWind; AeroDyn; ServoDyn; HydroDyn; MAP++ (<1.20.10>, <Oct-20-2023>)

Description from the FAST input file: CCT-9 Campign 4 model. Input files to be run with OpenFAST 3.5.0. GitHub branch from Lu Wang (https://github.com/luwang00/openfast/tree/dev) compiled on March 7, 2023.

Simulation information:
   Simulation time:                   502.2250 s
   Rotor Speed:                         0.8769 rad/s
   Azimuth:                             5.8077 rad
   Wind Speed:                         10.0000 m/s
   Number of continuous states:         0
   Number of discrete states:           0
   Number of constraint states:         0
   Number of inputs:                 1746
   Number of outputs:                   4
   Jacobians included in this file?    No

Order of inputs:
     Column   Operating Point                     Rotating Frame? Derivative Order Description
   ---------- ---------------                     --------------- ---------------- -----------
          1    1.101E+01                                 F               0         Tower X translation displacement, node 1, m
          2   -1.230E+00                                 F               0         Tower Y translation displacement, node 1, m
          3   -3.283E-01                                 F               0         Tower Z translation displacement, node 1, m
          4    1.248E+01                                 F               0         Tower X translation displacement, node 2, m
          5   -1.814E+00                                 F               0         Tower Y translation displacement, node 2, m
          6   -4.298E-01                                 F               0         Tower Z translation displacement, node 2, m
          7    1.397E+01                                 F               0         Tower X translation displacement, node 3, m
          8   -2.404E+00                                 F               0         Tower Y translation displacement, node 3, m
          9   -5.345E-01                                 F               0         Tower Z translation displacement, node 3, m
         10    1.548E+01                                 F               0         Tower X translation displacement, node 4, m
         11   -2.998E+00                                 F               0         Tower Y translation displacement, node 4, m
         12   -6.417E-01                                 F               0         Tower Z translation displacement, node 4, m
         13    1.701E+01                                 F               0         Tower X translation displacement, node 5, m
         14   -3.596E+00                                 F               0         Tower Y translation displacement, node 5, m
         15   -7.511E-01                                 F               0         Tower Z translation displacement, node 5, m
         16    1.855E+01                                 F               0         Tower X translation displacement, node 6, m
         17   -4.197E+00                                 F               0         Tower Y translation displacement, node 6, m
         18   -8.621E-01                                 F               0         Tower Z translation displacement, node 6, m
         19    2.010E+01                                 F               0         Tower X translation displacement, node 7, m
         20   -4.800E+00                                 F               0         Tower Y translation displacement, node 7, m
         21   -9.744E-01                                 F               0         Tower Z translation displacement, node 7, m
         22    2.166E+01                                 F               0         Tower X translation displacement, node 8, m
         23   -5.406E+00                                 F               0         Tower Y translation displacement, node 8, m
         24   -1.088E+00                                 F               0         Tower Z translation displacement, node 8, m
         25    2.322E+01                                 F               0         Tower X translation displacement, node 9, m
         26   -6.013E+00                                 F               0         Tower Y translation displacement, node 9, m
         27   -1.202E+00                                 F               0         Tower Z translation displacement, node 9, m
         28    2.478E+01                                 F               0         Tower X translation displacement, node 10, m
         29   -6.622E+00                                 F               0         Tower Y translation displacement, node 10, m
         30   -1.317E+00                                 F               0         Tower Z translation displacement, node 10, m
         31    2.635E+01                                 F               0         Tower X translation displacement, node 11, m
         32   -7.231E+00                                 F               0         Tower Y translation displacement, node 11, m
         33   -1.431E+00                                 F               0         Tower Z translation displacement, node 11, m
         34    9.930E-01,  9.755E-03, -1.177E-01         F               0         Tower X orientation angle, node 1, rad
         35   -4.133E-03,  9.988E-01,  4.790E-02         F               0         Tower Y orientation angle, node 1, rad
         36    1.181E-01, -4.708E-02,  9.919E-01         F               0         Tower Z orientation angle, node 1, rad
         37    9.928E-01,  9.844E-03, -1.196E-01         F               0         Tower X orientation angle, node 2, rad
         38   -4.080E-03,  9.988E-01,  4.834E-02         F               0         Tower Y orientation angle, node 2, rad
         39    1.199E-01, -4.751E-02,  9.916E-01         F               0         Tower Z orientation angle, node 2, rad
         40    9.926E-01,  9.923E-03, -1.212E-01         F               0         Tower X orientation angle, node 3, rad
         41   -4.031E-03,  9.988E-01,  4.874E-02         F               0         Tower Y orientation angle, node 3, rad
         42    1.216E-01, -4.789E-02,  9.914E-01         F               0         Tower Z orientation angle, node 3, rad
         43    9.924E-01,  9.990E-03, -1.226E-01         F               0         Tower X orientation angle, node 4, rad
         44   -3.989E-03,  9.988E-01,  4.909E-02         F               0         Tower Y orientation angle, node 4, rad
         45    1.230E-01, -4.823E-02,  9.912E-01         F               0         Tower Z orientation angle, node 4, rad
         46    9.923E-01,  1.004E-02, -1.238E-01         F               0         Tower X orientation angle, node 5, rad
         47   -3.952E-03,  9.988E-01,  4.939E-02         F               0         Tower Y orientation angle, node 5, rad
         48    1.241E-01, -4.851E-02,  9.911E-01         F               0         Tower Z orientation angle, node 5, rad
         49    9.921E-01,  1.009E-02, -1.247E-01         F               0         Tower X orientation angle, node 6, rad
         50   -3.920E-03,  9.988E-01,  4.963E-02         F               0         Tower Y orientation angle, node 6, rad
         51    1.250E-01, -4.876E-02,  9.910E-01         F               0         Tower Z orientation angle, node 6, rad
         52    9.921E-01,  1.012E-02, -1.253E-01         F               0         Tower X orientation angle, node 7, rad
         53   -3.895E-03,  9.987E-01,  4.983E-02         F               0         Tower Y orientation angle, node 7, rad
         54    1.257E-01, -4.895E-02,  9.909E-01         F               0         Tower Z orientation angle, node 7, rad
         55    9.920E-01,  1.015E-02, -1.258E-01         F               0         Tower X orientation angle, node 8, rad
         56   -3.876E-03,  9.987E-01,  4.999E-02         F               0         Tower Y orientation angle, node 8, rad
         57    1.262E-01, -4.910E-02,  9.908E-01         F               0         Tower Z orientation angle, node 8, rad
         58    9.920E-01,  1.016E-02, -1.262E-01         F               0         Tower X orientation angle, node 9, rad
         59   -3.861E-03,  9.987E-01,  5.010E-02         F               0         Tower Y orientation angle, node 9, rad
         60    1.265E-01, -4.921E-02,  9.907E-01         F               0         Tower Z orientation angle, node 9, rad
         61    9.919E-01,  1.018E-02, -1.264E-01         F               0         Tower X orientation angle, node 10, rad
         62   -3.852E-03,  9.987E-01,  5.018E-02         F               0         Tower Y orientation angle, node 10, rad
         63    1.267E-01, -4.928E-02,  9.907E-01         F               0         Tower Z orientation angle, node 10, rad
         64    9.919E-01,  1.018E-02, -1.265E-01         F               0         Tower X orientation angle, node 11, rad
         65   -3.847E-03,  9.987E-01,  5.022E-02         F               0         Tower Y orientation angle, node 11, rad
         66    1.268E-01, -4.932E-02,  9.907E-01         F               0         Tower Z orientation angle, node 11, rad
         67   -4.823E-03                                 F               0         Tower X translation velocity, node 1, m/s
         68   -2.821E-03                                 F               0         Tower Y translation velocity, node 1, m/s
         69    3.445E-04                                 F               0         Tower Z translation velocity, node 1, m/s
         70   -5.229E-03                                 F               0         Tower X translation velocity, node 2, m/s
         71   -5.996E-03                                 F               0         Tower Y translation velocity, node 2, m/s
         72    2.420E-04                                 F               0         Tower Z translation velocity, node 2, m/s
         73   -5.579E-03                                 F               0         Tower X translation velocity, node 3, m/s
         74   -9.109E-03                                 F               0         Tower Y translation velocity, node 3, m/s
         75    1.348E-04                                 F               0         Tower Z translation velocity, node 3, m/s
         76   -5.881E-03                                 F               0         Tower X translation velocity, node 4, m/s
         77   -1.217E-02                                 F               0         Tower Y translation velocity, node 4, m/s
         78    2.343E-05                                 F               0         Tower Z translation velocity, node 4, m/s
         79   -6.138E-03                                 F               0         Tower X translation velocity, node 5, m/s
         80   -1.519E-02                                 F               0         Tower Y translation velocity, node 5, m/s
         81   -9.192E-05                                 F               0         Tower Z translation velocity, node 5, m/s
         82   -6.355E-03                                 F               0         Tower X translation velocity, node 6, m/s
         83   -1.817E-02                                 F               0         Tower Y translation velocity, node 6, m/s
         84   -2.110E-04                                 F               0         Tower Z translation velocity, node 6, m/s
         85   -6.538E-03                                 F               0         Tower X translation velocity, node 7, m/s
         86   -2.112E-02                                 F               0         Tower Y translation velocity, node 7, m/s
         87   -3.333E-04                                 F               0         Tower Z translation velocity, node 7, m/s
         88   -6.690E-03                                 F               0         Tower X translation velocity, node 8, m/s
         89   -2.405E-02                                 F               0         Tower Y translation velocity, node 8, m/s
         90   -4.586E-04                                 F               0         Tower Z translation velocity, node 8, m/s
         91   -6.817E-03                                 F               0         Tower X translation velocity, node 9, m/s
         92   -2.695E-02                                 F               0         Tower Y translation velocity, node 9, m/s
         93   -5.864E-04                                 F               0         Tower Z translation velocity, node 9, m/s
         94   -6.924E-03                                 F               0         Tower X translation velocity, node 10, m/s
         95   -2.983E-02                                 F               0         Tower Y translation velocity, node 10, m/s
         96   -7.161E-04                                 F               0         Tower Z translation velocity, node 10, m/s
         97   -7.020E-03                                 F               0         Tower X translation velocity, node 11, m/s
         98   -3.271E-02                                 F               0         Tower Y translation velocity, node 11, m/s
         99   -8.471E-04                                 F               0         Tower Z translation velocity, node 11, m/s
        100    2.743E+01                                 F               0         Hub X translation displacement, node 1, m
        101   -7.728E+00                                 F               0         Hub Y translation displacement, node 1, m
        102   -1.383E-01                                 F               0         Hub Z translation displacement, node 1, m
        103    9.732E-01,  1.528E-02, -2.294E-01         F               0         Hub X orientation angle, node 1, rad
        104   -1.086E-01,  9.099E-01, -4.003E-01         F               0         Hub Y orientation angle, node 1, rad
        105    2.026E-01,  4.145E-01,  8.872E-01         F               0         Hub Z orientation angle, node 1, rad
        106    8.537E-01                                 F               0         Hub X rotation velocity, node 1, rad/s
        107    1.339E-02                                 F               0         Hub Y rotation velocity, node 1, rad/s
        108   -2.011E-01                                 F               0         Hub Z rotation velocity, node 1, rad/s
        109    9.760E-01, -1.172E-02, -2.174E-01         F               0         Blade root 1 X orientation angle, node 1, rad
        110   -7.971E-02,  9.100E-01, -4.069E-01         F               0         Blade root 1 Y orientation angle, node 1, rad
        111    2.026E-01,  4.145E-01,  8.872E-01         F               0         Blade root 1 Z orientation angle, node 1, rad
        112    9.660E-01,  1.812E-02, -2.580E-01         F               0         Blade root 2 X orientation angle, node 1, rad
        113    2.585E-01, -9.548E-02,  9.613E-01         F               0         Blade root 2 Y orientation angle, node 1, rad
        114   -7.214E-03, -9.953E-01, -9.692E-02         F               0         Blade root 2 Z orientation angle, node 1, rad
        115    9.764E-01,  3.942E-02, -2.124E-01         F               0         Blade root 3 X orientation angle, node 1, rad
        116   -9.220E-02, -8.131E-01, -5.747E-01         F               0         Blade root 3 Y orientation angle, node 1, rad
        117   -1.954E-01,  5.808E-01, -7.903E-01         F               0         Blade root 3 Z orientation angle, node 1, rad
        118    2.798E+01                                 F               0         Blade 1 X translation displacement, node 1, m
        119   -5.432E+00                                 F               0         Blade 1 Y translation displacement, node 1, m
        120   -7.328E-01                                 F               0         Blade 1 Z translation displacement, node 1, m
        121    2.811E+01                                 F               0         Blade 1 X translation displacement, node 2, m
        122   -4.879E+00                                 F               0         Blade 1 Y translation displacement, node 2, m
        123   -8.761E-01                                 F               0         Blade 1 Z translation displacement, node 2, m
        124    2.989E+01                                 F               0         Blade 1 X translation displacement, node 3, m
        125    2.646E+00                                 F               0         Blade 1 Y translation displacement, node 3, m
        126   -2.824E+00                                 F               0         Blade 1 Z translation displacement, node 3, m
        127    3.027E+01                                 F               0         Blade 1 X translation displacement, node 4, m
        128    4.249E+00                                 F               0         Blade 1 Y translation displacement, node 4, m
        129   -3.239E+00                                 F               0         Blade 1 Z translation displacement, node 4, m
        130    3.064E+01                                 F               0         Blade 1 X translation displacement, node 5, m
        131    5.852E+00                                 F               0         Blade 1 Y translation displacement, node 5, m
        132   -3.654E+00                                 F               0         Blade 1 Z translation displacement, node 5, m
        133    3.102E+01                                 F               0         Blade 1 X translation displacement, node 6, m
        134    7.455E+00                                 F               0         Blade 1 Y translation displacement, node 6, m
        135   -4.069E+00                                 F               0         Blade 1 Z translation displacement, node 6, m
        136    3.140E+01                                 F               0         Blade 1 X translation displacement, node 7, m
        137    9.058E+00                                 F               0         Blade 1 Y translation displacement, node 7, m
        138   -4.484E+00                                 F               0         Blade 1 Z translation displacement, node 7, m
        139    3.178E+01                                 F               0         Blade 1 X translation displacement, node 8, m
        140    1.066E+01                                 F               0         Blade 1 Y translation displacement, node 8, m
        141   -4.899E+00                                 F               0         Blade 1 Z translation displacement, node 8, m
        142    3.216E+01                                 F               0         Blade 1 X translation displacement, node 9, m
        143    1.227E+01                                 F               0         Blade 1 Y translation displacement, node 9, m
        144   -5.314E+00                                 F               0         Blade 1 Z translation displacement, node 9, m
        145    3.254E+01                                 F               0         Blade 1 X translation displacement, node 10, m
        146    1.387E+01                                 F               0         Blade 1 Y translation displacement, node 10, m
        147   -5.729E+00                                 F               0         Blade 1 Z translation displacement, node 10, m
        148    3.292E+01                                 F               0         Blade 1 X translation displacement, node 11, m
        149    1.547E+01                                 F               0         Blade 1 Y translation displacement, node 11, m
        150   -6.144E+00                                 F               0         Blade 1 Z translation displacement, node 11, m
        151    3.330E+01                                 F               0         Blade 1 X translation displacement, node 12, m
        152    1.707E+01                                 F               0         Blade 1 Y translation displacement, node 12, m
        153   -6.560E+00                                 F               0         Blade 1 Z translation displacement, node 12, m
        154    3.368E+01                                 F               0         Blade 1 X translation displacement, node 13, m
        155    1.868E+01                                 F               0         Blade 1 Y translation displacement, node 13, m
        156   -6.975E+00                                 F               0         Blade 1 Z translation displacement, node 13, m
        157    3.406E+01                                 F               0         Blade 1 X translation displacement, node 14, m
        158    2.028E+01                                 F               0         Blade 1 Y translation displacement, node 14, m
        159   -7.390E+00                                 F               0         Blade 1 Z translation displacement, node 14, m
        160    3.444E+01                                 F               0         Blade 1 X translation displacement, node 15, m
        161    2.188E+01                                 F               0         Blade 1 Y translation displacement, node 15, m
        162   -7.805E+00                                 F               0         Blade 1 Z translation displacement, node 15, m
        163    3.482E+01                                 F               0         Blade 1 X translation displacement, node 16, m
        164    2.349E+01                                 F               0         Blade 1 Y translation displacement, node 16, m
        165   -8.220E+00                                 F               0         Blade 1 Z translation displacement, node 16, m
        166    3.520E+01                                 F               0         Blade 1 X translation displacement, node 17, m
        167    2.509E+01                                 F               0         Blade 1 Y translation displacement, node 17, m
        168   -8.635E+00                                 F               0         Blade 1 Z translation displacement, node 17, m
        169    3.557E+01                                 F               0         Blade 1 X translation displacement, node 18, m
        170    2.669E+01                                 F               0         Blade 1 Y translation displacement, node 18, m
        171   -9.050E+00                                 F               0         Blade 1 Z translation displacement, node 18, m
        172    3.595E+01                                 F               0         Blade 1 X translation displacement, node 19, m
        173    2.830E+01                                 F               0         Blade 1 Y translation displacement, node 19, m
        174   -9.465E+00                                 F               0         Blade 1 Z translation displacement, node 19, m
        175    3.633E+01                                 F               0         Blade 1 X translation displacement, node 20, m
        176    2.990E+01                                 F               0         Blade 1 Y translation displacement, node 20, m
        177   -9.880E+00                                 F               0         Blade 1 Z translation displacement, node 20, m
        178    3.671E+01                                 F               0         Blade 1 X translation displacement, node 21, m
        179    3.150E+01                                 F               0         Blade 1 Y translation displacement, node 21, m
        180   -1.029E+01                                 F               0         Blade 1 Z translation displacement, node 21, m
        181    3.709E+01                                 F               0         Blade 1 X translation displacement, node 22, m
        182    3.311E+01                                 F               0         Blade 1 Y translation displacement, node 22, m
        183   -1.071E+01                                 F               0         Blade 1 Z translation displacement, node 22, m
        184    3.747E+01                                 F               0         Blade 1 X translation displacement, node 23, m
        185    3.471E+01                                 F               0         Blade 1 Y translation displacement, node 23, m
        186   -1.113E+01                                 F               0         Blade 1 Z translation displacement, node 23, m
        187    3.785E+01                                 F               0         Blade 1 X translation displacement, node 24, m
        188    3.631E+01                                 F               0         Blade 1 Y translation displacement, node 24, m
        189   -1.154E+01                                 F               0         Blade 1 Z translation displacement, node 24, m
        190    3.823E+01                                 F               0         Blade 1 X translation displacement, node 25, m
        191    3.792E+01                                 F               0         Blade 1 Y translation displacement, node 25, m
        192   -1.196E+01                                 F               0         Blade 1 Z translation displacement, node 25, m
        193    3.861E+01                                 F               0         Blade 1 X translation displacement, node 26, m
        194    3.952E+01                                 F               0         Blade 1 Y translation displacement, node 26, m
        195   -1.237E+01                                 F               0         Blade 1 Z translation displacement, node 26, m
        196    3.899E+01                                 F               0         Blade 1 X translation displacement, node 27, m
        197    4.112E+01                                 F               0         Blade 1 Y translation displacement, node 27, m
        198   -1.279E+01                                 F               0         Blade 1 Z translation displacement, node 27, m
        199    3.931E+01                                 F               0         Blade 1 X translation displacement, node 28, m
        200    4.248E+01                                 F               0         Blade 1 Y translation displacement, node 28, m
        201   -1.314E+01                                 F               0         Blade 1 Z translation displacement, node 28, m
        202    9.050E-01, -4.254E-01, -7.888E-03         F               0         Blade 1 X orientation angle, node 1, rad
        203    3.741E-01,  8.045E-01, -4.613E-01         F               0         Blade 1 Y orientation angle, node 1, rad
        204    2.026E-01,  4.145E-01,  8.872E-01         F               0         Blade 1 Z orientation angle, node 1, rad
        205    9.050E-01, -4.254E-01, -7.888E-03         F               0         Blade 1 X orientation angle, node 2, rad
        206    3.741E-01,  8.045E-01, -4.613E-01         F               0         Blade 1 Y orientation angle, node 2, rad
        207    2.026E-01,  4.145E-01,  8.872E-01         F               0         Blade 1 Z orientation angle, node 2, rad
        208    9.679E-01, -2.226E-01, -1.170E-01         F               0         Blade 1 X orientation angle, node 3, rad
        209    1.490E-01,  8.824E-01, -4.463E-01         F               0         Blade 1 Y orientation angle, node 3, rad
        210    2.026E-01,  4.145E-01,  8.872E-01         F               0         Blade 1 Z orientation angle, node 3, rad
        211    9.733E-01, -1.851E-01, -1.357E-01         F               0         Blade 1 X orientation angle, node 4, rad
        212    1.080E-01,  8.910E-01, -4.409E-01         F               0         Blade 1 Y orientation angle, node 4, rad
        213    2.026E-01,  4.145E-01,  8.872E-01         F               0         Blade 1 Z orientation angle, node 4, rad
        214    9.763E-01, -1.555E-01, -1.503E-01         F               0         Blade 1 X orientation angle, node 5, rad
        215    7.566E-02,  8.967E-01, -4.362E-01         F               0         Blade 1 Y orientation angle, node 5, rad
        216    2.026E-01,  4.145E-01,  8.872E-01         F               0         Blade 1 Z orientation angle, node 5, rad
        217    9.780E-01, -1.317E-01, -1.618E-01         F               0         Blade 1 X orientation angle, node 6, rad
        218    4.974E-02,  9.005E-01, -4.321E-01         F               0         Blade 1 Y orientation angle, node 6, rad
        219    2.026E-01,  4.145E-01,  8.872E-01         F               0         Blade 1 Z orientation angle, node 6, rad
        220    9.789E-01, -1.120E-01, -1.712E-01         F               0         Blade 1 X orientation angle, node 7, rad
        221    2.839E-02,  9.031E-01, -4.284E-01         F               0         Blade 1 Y orientation angle, node 7, rad
        222    2.026E-01,  4.145E-01,  8.872E-01         F               0         Blade 1 Z orientation angle, node 7, rad
        223    9.792E-01, -9.557E-02, -1.789E-01         F               0         Blade 1 X orientation angle, node 8, rad
        224    1.062E-02,  9.050E-01, -4.253E-01         F               0         Blade 1 Y orientation angle, node 8, rad
        225    2.026E-01,  4.145E-01,  8.872E-01         F               0         Blade 1 Z orientation angle, node 8, rad
        226    9.793E-01, -8.166E-02, -1.854E-01         F               0         Blade 1 X orientation angle, node 9, rad
        227   -4.423E-03,  9.064E-01, -4.225E-01         F               0         Blade 1 Y orientation angle, node 9, rad