
Linearized model: Predictions were generated on 07-Feb-2024 at 11:38:03 using OpenFAST, compiled as a 64-bit application using single precision at commit v3.5.1
 linked with  NWTC Subroutine Library; ElastoDyn; InflowWind; AeroDyn; ServoDyn; HydroDyn; MAP++ (<1.20.10>, <Oct-20-2023>)

Description from the FAST input file: CCT-9 Campign 4 model. Input files to be run with OpenFAST 3.5.0. GitHub branch from Lu Wang (https://github.com/luwang00/openfast/tree/dev) compiled on March 7, 2023.

Simulation information:
   Simulation time:                  1000.7500 s
   Rotor Speed:                         1.0389 rad/s
   Azimuth:                             1.8291 rad
   Wind Speed:                         12.0000 m/s
   Number of continuous states:         0
   Number of discrete states:           0
   Number of constraint states:         0
   Number of inputs:                    9
   Number of outputs:                   3
   Jacobians included in this file?    No

Order of inputs:
     Column   Operating Point                     Rotating Frame? Derivative Order Description
   ---------- ---------------                     --------------- ---------------- -----------
          1    1.009E+01                                 F               0         PtFairDisplacement X translation displacement, node 1, m
          2    8.926E-01                                 F               0         PtFairDisplacement Y translation displacement, node 1, m
          3   -7.028E+00                                 F               0         PtFairDisplacement Z translation displacement, node 1, m
          4    9.334E+00                                 F               0         PtFairDisplacement X translation displacement, node 2, m
          5    7.731E-01                                 F               0         PtFairDisplacement Y translation displacement, node 2, m
          6   -2.233E+00                                 F               0         PtFairDisplacement Z translation displacement, node 2, m
          7    1.079E+01                                 F               0         PtFairDisplacement X translation displacement, node 3, m
          8   -4.425E-01                                 F               0         PtFairDisplacement Y translation displacement, node 3, m
          9    9.128E+00                                 F               0         PtFairDisplacement Z translation displacement, node 3, m

Order of outputs:
        Row   Operating Point                     Rotating Frame? Derivative Order Description
   ---------- ---------------                     --------------- ---------------- -----------
          1    2.794E+06                                 F               0         T[1], [N]
          2    2.574E+06                                 F               0         T[2], [N]
          3    4.780E+06                                 F               0         T[3], [N]


Linearized state matrices:

D: 3 x 9
   -6.049E+04  1.105E+05 -3.452E+03  0.000E+00  0.000E+00  0.000E+00  0.000E+00  0.000E+00  0.000E+00
    0.000E+00  0.000E+00  0.000E+00 -6.093E+04 -1.114E+05 -1.345E+03  0.000E+00  0.000E+00  0.000E+00
    0.000E+00  0.000E+00  0.000E+00  0.000E+00  0.000E+00  0.000E+00  1.227E+05 -2.998E+03  8.649E+03
