
Linearized model: Predictions were generated on 12-Feb-2024 at 15:30:16 using OpenFAST, compiled as a 64-bit application using single precision at commit v3.5.1
 linked with  NWTC Subroutine Library; ElastoDyn; InflowWind; AeroDyn; ServoDyn; HydroDyn; MAP++ (<1.20.10>, <Oct-20-2023>)

Description from the FAST input file: CCT-9 Campign 4 model. Input files to be run with OpenFAST 3.5.0. GitHub branch from Lu Wang (https://github.com/luwang00/openfast/tree/dev) compiled on March 7, 2023.

Simulation information:
   Simulation time:                  1005.9750 s
   Rotor Speed:                         1.0410 rad/s
   Azimuth:                             0.9797 rad
   Wind Speed:                         12.0000 m/s
   Number of continuous states:         0
   Number of discrete states:           0
   Number of constraint states:         0
   Number of inputs:                  303
   Number of outputs:                   1
   Jacobians included in this file?    No

Order of inputs:
     Column   Operating Point                     Rotating Frame? Derivative Order Description
   ---------- ---------------                     --------------- ---------------- -----------
          1   -1.080E+01                                 F               0         X-component position of node 1 (hub), m
          2    0.000E+00                                 F               0         Y-component position of node 1 (hub), m
          3    1.497E+02                                 F               0         Z-component position of node 1 (hub), m
          4    2.688E+01                                 F               0         X-component position of node 2 (blade 1, node 1), m
          5   -1.309E+01                                 F               0         Y-component position of node 2 (blade 1, node 1), m
          6    1.518E+02                                 F               0         Z-component position of node 2 (blade 1, node 1), m
          7    2.708E+01                                 F               0         X-component position of node 3 (blade 1, node 2), m
          8   -1.423E+01                                 F               0         Y-component position of node 3 (blade 1, node 2), m
          9    1.524E+02                                 F               0         Z-component position of node 3 (blade 1, node 2), m
         10    2.989E+01                                 F               0         X-component position of node 4 (blade 1, node 3), m
         11   -2.981E+01                                 F               0         Y-component position of node 4 (blade 1, node 3), m
         12    1.613E+02                                 F               0         Z-component position of node 4 (blade 1, node 3), m
         13    3.048E+01                                 F               0         X-component position of node 5 (blade 1, node 4), m
         14   -3.313E+01                                 F               0         Y-component position of node 5 (blade 1, node 4), m
         15    1.632E+02                                 F               0         Z-component position of node 5 (blade 1, node 4), m
         16    3.108E+01                                 F               0         X-component position of node 6 (blade 1, node 5), m
         17   -3.645E+01                                 F               0         Y-component position of node 6 (blade 1, node 5), m
         18    1.651E+02                                 F               0         Z-component position of node 6 (blade 1, node 5), m
         19    3.168E+01                                 F               0         X-component position of node 7 (blade 1, node 6), m
         20   -3.977E+01                                 F               0         Y-component position of node 7 (blade 1, node 6), m
         21    1.670E+02                                 F               0         Z-component position of node 7 (blade 1, node 6), m
         22    3.228E+01                                 F               0         X-component position of node 8 (blade 1, node 7), m
         23   -4.309E+01                                 F               0         Y-component position of node 8 (blade 1, node 7), m
         24    1.689E+02                                 F               0         Z-component position of node 8 (blade 1, node 7), m
         25    3.288E+01                                 F               0         X-component position of node 9 (blade 1, node 8), m
         26   -4.641E+01                                 F               0         Y-component position of node 9 (blade 1, node 8), m
         27    1.708E+02                                 F               0         Z-component position of node 9 (blade 1, node 8), m
         28    3.347E+01                                 F               0         X-component position of node 10 (blade 1, node 9), m
         29   -4.973E+01                                 F               0         Y-component position of node 10 (blade 1, node 9), m
         30    1.727E+02                                 F               0         Z-component position of node 10 (blade 1, node 9), m
         31    3.407E+01                                 F               0         X-component position of node 11 (blade 1, node 10), m
         32   -5.305E+01                                 F               0         Y-component position of node 11 (blade 1, node 10), m
         33    1.746E+02                                 F               0         Z-component position of node 11 (blade 1, node 10), m
         34    3.467E+01                                 F               0         X-component position of node 12 (blade 1, node 11), m
         35   -5.637E+01                                 F               0         Y-component position of node 12 (blade 1, node 11), m
         36    1.765E+02                                 F               0         Z-component position of node 12 (blade 1, node 11), m
         37    3.527E+01                                 F               0         X-component position of node 13 (blade 1, node 12), m
         38   -5.968E+01                                 F               0         Y-component position of node 13 (blade 1, node 12), m
         39    1.784E+02                                 F               0         Z-component position of node 13 (blade 1, node 12), m
         40    3.586E+01                                 F               0         X-component position of node 14 (blade 1, node 13), m
         41   -6.300E+01                                 F               0         Y-component position of node 14 (blade 1, node 13), m
         42    1.803E+02                                 F               0         Z-component position of node 14 (blade 1, node 13), m
         43    3.646E+01                                 F               0         X-component position of node 15 (blade 1, node 14), m
         44   -6.632E+01                                 F               0         Y-component position of node 15 (blade 1, node 14), m
         45    1.822E+02                                 F               0         Z-component position of node 15 (blade 1, node 14), m
         46    3.706E+01                                 F               0         X-component position of node 16 (blade 1, node 15), m
         47   -6.964E+01                                 F               0         Y-component position of node 16 (blade 1, node 15), m
         48    1.840E+02                                 F               0         Z-component position of node 16 (blade 1, node 15), m
         49    3.766E+01                                 F               0         X-component position of node 17 (blade 1, node 16), m
         50   -7.296E+01                                 F               0         Y-component position of node 17 (blade 1, node 16), m
         51    1.859E+02                                 F               0         Z-component position of node 17 (blade 1, node 16), m
         52    3.825E+01                                 F               0         X-component position of node 18 (blade 1, node 17), m
         53   -7.628E+01                                 F               0         Y-component position of node 18 (blade 1, node 17), m
         54    1.878E+02                                 F               0         Z-component position of node 18 (blade 1, node 17), m
         55    3.885E+01                                 F               0         X-component position of node 19 (blade 1, node 18), m
         56   -7.960E+01                                 F               0         Y-component position of node 19 (blade 1, node 18), m
         57    1.897E+02                                 F               0         Z-component position of node 19 (blade 1, node 18), m
         58    3.945E+01                                 F               0         X-component position of node 20 (blade 1, node 19), m
         59   -8.292E+01                                 F               0         Y-component position of node 20 (blade 1, node 19), m
         60    1.916E+02                                 F               0         Z-component position of node 20 (blade 1, node 19), m
         61    4.005E+01                                 F               0         X-component position of node 21 (blade 1, node 20), m
         62   -8.624E+01                                 F               0         Y-component position of node 21 (blade 1, node 20), m
         63    1.935E+02                                 F               0         Z-component position of node 21 (blade 1, node 20), m
         64    4.064E+01                                 F               0         X-component position of node 22 (blade 1, node 21), m
         65   -8.956E+01                                 F               0         Y-component position of node 22 (blade 1, node 21), m
         66    1.954E+02                                 F               0         Z-component position of node 22 (blade 1, node 21), m
         67    4.124E+01                                 F               0         X-component position of node 23 (blade 1, node 22), m
         68   -9.288E+01                                 F               0         Y-component position of node 23 (blade 1, node 22), m
         69    1.973E+02                                 F               0         Z-component position of node 23 (blade 1, node 22), m
         70    4.184E+01                                 F               0         X-component position of node 24 (blade 1, node 23), m
         71   -9.620E+01                                 F               0         Y-component position of node 24 (blade 1, node 23), m
         72    1.992E+02                                 F               0         Z-component position of node 24 (blade 1, node 23), m
         73    4.244E+01                                 F               0         X-component position of node 25 (blade 1, node 24), m
         74   -9.952E+01                                 F               0         Y-component position of node 25 (blade 1, node 24), m
         75    2.011E+02                                 F               0         Z-component position of node 25 (blade 1, node 24), m
         76    4.303E+01                                 F               0         X-component position of node 26 (blade 1, node 25), m
         77   -1.028E+02                                 F               0         Y-component position of node 26 (blade 1, node 25), m
         78    2.030E+02                                 F               0         Z-component position of node 26 (blade 1, node 25), m
         79    4.363E+01                                 F               0         X-component position of node 27 (blade 1, node 26), m
         80   -1.062E+02                                 F               0         Y-component position of node 27 (blade 1, node 26), m
         81    2.049E+02                                 F               0         Z-component position of node 27 (blade 1, node 26), m
         82    4.423E+01                                 F               0         X-component position of node 28 (blade 1, node 27), m
         83   -1.095E+02                                 F               0         Y-component position of node 28 (blade 1, node 27), m
         84    2.068E+02                                 F               0         Z-component position of node 28 (blade 1, node 27), m
         85    4.474E+01                                 F               0         X-component position of node 29 (blade 1, node 28), m
         86   -1.123E+02                                 F               0         Y-component position of node 29 (blade 1, node 28), m
         87    2.084E+02                                 F               0         Z-component position of node 29 (blade 1, node 28), m
         88    2.453E+01                                 F               0         X-component position of node 30 (blade 2, node 1), m
         89   -8.415E+00                                 F               0         Y-component position of node 30 (blade 2, node 1), m
         90    1.437E+02                                 F               0         Z-component position of node 30 (blade 2, node 1), m
         91    2.417E+01                                 F               0         X-component position of node 31 (blade 2, node 2), m
         92   -8.435E+00                                 F               0         Y-component position of node 31 (blade 2, node 2), m
         93    1.425E+02                                 F               0         Z-component position of node 31 (blade 2, node 2), m
         94    1.929E+01                                 F               0         X-component position of node 32 (blade 2, node 3), m
         95   -8.709E+00                                 F               0         Y-component position of node 32 (blade 2, node 3), m
         96    1.250E+02                                 F               0         Z-component position of node 32 (blade 2, node 3), m
         97    1.825E+01                                 F               0         X-component position of node 33 (blade 2, node 4), m
         98   -8.767E+00                                 F               0         Y-component position of node 33 (blade 2, node 4), m
         99    1.212E+02                                 F               0         Z-component position of node 33 (blade 2, node 4), m
        100    1.721E+01                                 F               0         X-component position of node 34 (blade 2, node 5), m
        101   -8.825E+00                                 F               0         Y-component position of node 34 (blade 2, node 5), m
        102    1.175E+02                                 F               0         Z-component position of node 34 (blade 2, node 5), m
        103    1.617E+01                                 F               0         X-component position of node 35 (blade 2, node 6), m
        104   -8.884E+00                                 F               0         Y-component position of node 35 (blade 2, node 6), m
        105    1.138E+02                                 F               0         Z-component position of node 35 (blade 2, node 6), m
        106    1.513E+01                                 F               0         X-component position of node 36 (blade 2, node 7), m
        107   -8.942E+00                                 F               0         Y-component position of node 36 (blade 2, node 7), m
        108    1.101E+02                                 F               0         Z-component position of node 36 (blade 2, node 7), m
        109    1.409E+01                                 F               0         X-component position of node 37 (blade 2, node 8), m
        110   -9.000E+00                                 F               0         Y-component position of node 37 (blade 2, node 8), m
        111    1.063E+02                                 F               0         Z-component position of node 37 (blade 2, node 8), m
        112    1.305E+01                                 F               0         X-component position of node 38 (blade 2, node 9), m
        113   -9.058E+00                                 F               0         Y-component position of node 38 (blade 2, node 9), m
        114    1.026E+02                                 F               0         Z-component position of node 38 (blade 2, node 9), m
        115    1.201E+01                                 F               0         X-component position of node 39 (blade 2, node 10), m
        116   -9.117E+00                                 F               0         Y-component position of node 39 (blade 2, node 10), m
        117    9.890E+01                                 F               0         Z-component position of node 39 (blade 2, node 10), m
        118    1.097E+01                                 F               0         X-component position of node 40 (blade 2, node 11), m
        119   -9.175E+00                                 F               0         Y-component position of node 40 (blade 2, node 11), m
        120    9.518E+01                                 F               0         Z-component position of node 40 (blade 2, node 11), m
        121    9.933E+00                                 F               0         X-component position of node 41 (blade 2, node 12), m
        122   -9.233E+00                                 F               0         Y-component position of node 41 (blade 2, node 12), m
        123    9.145E+01                                 F               0         Z-component position of node 41 (blade 2, node 12), m
        124    8.893E+00                                 F               0         X-component position of node 42 (blade 2, node 13), m
        125   -9.292E+00                                 F               0         Y-component position of node 42 (blade 2, node 13), m
        126    8.773E+01                                 F               0         Z-component position of node 42 (blade 2, node 13), m
        127    7.854E+00                                 F               0         X-component position of node 43 (blade 2, node 14), m
        128   -9.350E+00                                 F               0         Y-component position of node 43 (blade 2, node 14), m
        129    8.400E+01                                 F               0         Z-component position of node 43 (blade 2, node 14), m
        130    6.814E+00                                 F               0         X-component position of node 44 (blade 2, node 15), m
        131   -9.408E+00                                 F               0         Y-component position of node 44 (blade 2, node 15), m
        132    8.028E+01                                 F               0         Z-component position of node 44 (blade 2, node 15), m
        133    5.774E+00                                 F               0         X-component position of node 45 (blade 2, node 16), m
        134   -9.466E+00                                 F               0         Y-component position of node 45 (blade 2, node 16), m
        135    7.655E+01                                 F               0         Z-component position of node 45 (blade 2, node 16), m
        136    4.734E+00                                 F               0         X-component position of node 46 (blade 2, node 17), m
        137   -9.525E+00                                 F               0         Y-component position of node 46 (blade 2, node 17), m
        138    7.283E+01                                 F               0         Z-component position of node 46 (blade 2, node 17), m
        139    3.694E+00                                 F               0         X-component position of node 47 (blade 2, node 18), m
        140   -9.583E+00                                 F               0         Y-component position of node 47 (blade 2, node 18), m
        141    6.910E+01                                 F               0         Z-component position of node 47 (blade 2, node 18), m
        142    2.655E+00                                 F               0         X-component position of node 48 (blade 2, node 19), m
        143   -9.641E+00                                 F               0         Y-component position of node 48 (blade 2, node 19), m
        144    6.538E+01                                 F               0         Z-component position of node 48 (blade 2, node 19), m
        145    1.615E+00                                 F               0         X-component position of node 49 (blade 2, node 20), m
        146   -9.700E+00                                 F               0         Y-component position of node 49 (blade 2, node 20), m
        147    6.165E+01                                 F               0         Z-component position of node 49 (blade 2, node 20), m
        148    5.751E-01                                 F               0         X-component position of node 50 (blade 2, node 21), m
        149   -9.758E+00                                 F               0         Y-component position of node 50 (blade 2, node 21), m
        150    5.793E+01                                 F               0         Z-component position of node 50 (blade 2, node 21), m
        151   -4.649E-01                                 F               0         X-component position of node 51 (blade 2, node 22), m
        152   -9.816E+00                                 F               0         Y-component position of node 51 (blade 2, node 22), m
        153    5.420E+01                                 F               0         Z-component position of node 51 (blade 2, node 22), m
        154   -1.505E+00                                 F               0         X-component position of node 52 (blade 2, node 23), m
        155   -9.874E+00                                 F               0         Y-component position of node 52 (blade 2, node 23), m
        156    5.048E+01                                 F               0         Z-component position of node 52 (blade 2, node 23), m
        157   -2.544E+00                                 F               0         X-component position of node 53 (blade 2, node 24), m
        158   -9.933E+00                                 F               0         Y-component position of node 53 (blade 2, node 24), m
        159    4.675E+01                                 F               0         Z-component position of node 53 (blade 2, node 24), m
        160   -3.584E+00                                 F               0         X-component position of node 54 (blade 2, node 25), m
        161   -9.991E+00                                 F               0         Y-component position of node 54 (blade 2, node 25), m
        162    4.303E+01                                 F               0         Z-component position of node 54 (blade 2, node 25), m
        163   -4.624E+00                                 F               0         X-component position of node 55 (blade 2, node 26), m
        164   -1.005E+01                                 F               0         Y-component position of node 55 (blade 2, node 26), m
        165    3.930E+01                                 F               0         Z-component position of node 55 (blade 2, node 26), m
        166   -5.664E+00                                 F               0         X-component position of node 56 (blade 2, node 27), m
        167   -1.011E+01                                 F               0         Y-component position of node 56 (blade 2, node 27), m
        168    3.558E+01                                 F               0         Z-component position of node 56 (blade 2, node 27), m
        169   -6.545E+00                                 F               0         X-component position of node 57 (blade 2, node 28), m
        170   -1.016E+01                                 F               0         Y-component position of node 57 (blade 2, node 28), m
        171    3.242E+01                                 F               0         Z-component position of node 57 (blade 2, node 28), m
        172    2.665E+01                                 F               0         X-component position of node 58 (blade 3, node 1), m
        173   -3.494E+00                                 F               0         Y-component position of node 58 (blade 3, node 1), m
        174    1.517E+02                                 F               0         Z-component position of node 58 (blade 3, node 1), m
        175    2.681E+01                                 F               0         X-component position of node 59 (blade 3, node 2), m
        176   -2.328E+00                                 F               0         Y-component position of node 59 (blade 3, node 2), m
        177    1.523E+02                                 F               0         Z-component position of node 59 (blade 3, node 2), m
        178    2.888E+01                                 F               0         X-component position of node 60 (blade 3, node 3), m
        179    1.352E+01                                 F               0         Y-component position of node 60 (blade 3, node 3), m
        180    1.609E+02                                 F               0         Z-component position of node 60 (blade 3, node 3), m
        181    2.932E+01                                 F               0         X-component position of node 61 (blade 3, node 4), m
        182    1.690E+01                                 F               0         Y-component position of node 61 (blade 3, node 4), m
        183    1.628E+02                                 F               0         Z-component position of node 61 (blade 3, node 4), m
        184    2.976E+01                                 F               0         X-component position of node 62 (blade 3, node 5), m
        185    2.028E+01                                 F               0         Y-component position of node 62 (blade 3, node 5), m
        186    1.646E+02                                 F               0         Z-component position of node 62 (blade 3, node 5), m
        187    3.021E+01                                 F               0         X-component position of node 63 (blade 3, node 6), m
        188    2.366E+01                                 F               0         Y-component position of node 63 (blade 3, node 6), m
        189    1.664E+02                                 F               0         Z-component position of node 63 (blade 3, node 6), m
        190    3.065E+01                                 F               0         X-component position of node 64 (blade 3, node 7), m
        191    2.703E+01                                 F               0         Y-component position of node 64 (blade 3, node 7), m
        192    1.683E+02                                 F               0         Z-component position of node 64 (blade 3, node 7), m
        193    3.109E+01                                 F               0         X-component position of node 65 (blade 3, node 8), m
        194    3.041E+01                                 F               0         Y-component position of node 65 (blade 3, node 8), m
        195    1.701E+02                                 F               0         Z-component position of node 65 (blade 3, node 8), m
        196    3.153E+01                                 F               0         X-component position of node 66 (blade 3, node 9), m
        197    3.379E+01                                 F               0         Y-component position of node 66 (blade 3, node 9), m
        198    1.719E+02                                 F               0         Z-component position of node 66 (blade 3, node 9), m
        199    3.198E+01                                 F               0         X-component position of node 67 (blade 3, node 10), m
        200    3.717E+01                                 F               0         Y-component position of node 67 (blade 3, node 10), m
        201    1.738E+02                                 F               0         Z-component position of node 67 (blade 3, node 10), m
        202    3.242E+01                                 F               0         X-component position of node 68 (blade 3, node 11), m
        203    4.055E+01                                 F               0         Y-component position of node 68 (blade 3, node 11), m
        204    1.756E+02                                 F               0         Z-component position of node 68 (blade 3, node 11), m
        205    3.286E+01                                 F               0         X-component position of node 69 (blade 3, node 12), m
        206    4.392E+01                                 F               0         Y-component position of node 69 (blade 3, node 12), m
        207    1.774E+02                                 F               0         Z-component position of node 69 (blade 3, node 12), m
        208    3.330E+01                                 F               0         X-component position of node 70 (blade 3, node 13), m
        209    4.730E+01                                 F               0         Y-component position of node 70 (blade 3, node 13), m
        210    1.792E+02                                 F               0         Z-component position of node 70 (blade 3, node 13), m
        211    3.374E+01                                 F               0         X-component position of node 71 (blade 3, node 14), m