
Linearized model: Predictions were generated on 06-Feb-2024 at 10:15:48 using OpenFAST, compiled as a 64-bit application using single precision at commit v3.5.1
 linked with  NWTC Subroutine Library; ElastoDyn; InflowWind; AeroDyn; ServoDyn; HydroDyn; MAP++ (<1.20.10>, <Oct-20-2023>)

Description from the FAST input file: CCT-9 Campign 4 model. Input files to be run with OpenFAST 3.5.0. GitHub branch from Lu Wang (https://github.com/luwang00/openfast/tree/dev) compiled on March 7, 2023.

Simulation information:
   Simulation time:                  1006.9750 s
   Rotor Speed:                         1.0417 rad/s
   Azimuth:                             2.0211 rad
   Wind Speed:                         12.0000 m/s
   Number of continuous states:         0
   Number of discrete states:           0
   Number of constraint states:         0
   Number of inputs:                    9
   Number of outputs:                   3
   Jacobians included in this file?    No

Order of inputs:
     Column   Operating Point                     Rotating Frame? Derivative Order Description
   ---------- ---------------                     --------------- ---------------- -----------
          1    9.999E+00                                 F               0         PtFairDisplacement X translation displacement, node 1, m
          2    1.015E+00                                 F               0         PtFairDisplacement Y translation displacement, node 1, m
          3   -7.412E+00                                 F               0         PtFairDisplacement Z translation displacement, node 1, m
          4    9.428E+00                                 F               0         PtFairDisplacement X translation displacement, node 2, m
          5    8.560E-01                                 F               0         PtFairDisplacement Y translation displacement, node 2, m
          6   -1.792E+00                                 F               0         PtFairDisplacement Z translation displacement, node 2, m
          7    1.079E+01                                 F               0         PtFairDisplacement X translation displacement, node 3, m
          8   -2.944E-01                                 F               0         PtFairDisplacement Y translation displacement, node 3, m
          9    9.111E+00                                 F               0         PtFairDisplacement Z translation displacement, node 3, m

Order of outputs:
        Row   Operating Point                     Rotating Frame? Derivative Order Description
   ---------- ---------------                     --------------- ---------------- -----------
          1    2.814E+06                                 F               0         T[1], [N]
          2    2.559E+06                                 F               0         T[2], [N]
          3    4.779E+06                                 F               0         T[3], [N]


Linearized state matrices:

D: 3 x 9
   -6.049E+04  1.105E+05 -3.616E+03  0.000E+00  0.000E+00  0.000E+00  0.000E+00  0.000E+00  0.000E+00
    0.000E+00  0.000E+00  0.000E+00 -6.092E+04 -1.114E+05 -1.150E+03  0.000E+00  0.000E+00  0.000E+00
    0.000E+00  0.000E+00  0.000E+00  0.000E+00  0.000E+00  0.000E+00  1.227E+05 -2.867E+03  8.634E+03
