
Linearized model: Predictions were generated on 13-Feb-2024 at 11:29:37 using OpenFAST, compiled as a 64-bit application using single precision at commit v3.5.1
 linked with  NWTC Subroutine Library; ElastoDyn; InflowWind; AeroDyn; ServoDyn; HydroDyn; MAP++ (<1.20.10>, <Oct-20-2023>)

Description from the FAST input file: CCT-9 Campign 4 model. Input files to be run with OpenFAST 3.5.0. GitHub branch from Lu Wang (https://github.com/luwang00/openfast/tree/dev) compiled on March 7, 2023.

Simulation information:
   Simulation time:                  1212.3750 s
   Rotor Speed:                         0.7914 rad/s
   Azimuth:                             1.2270 rad
   Wind Speed:                         16.0000 m/s
   Number of continuous states:         0
   Number of discrete states:           0
   Number of constraint states:         0
   Number of inputs:                   37
   Number of outputs:                   7
   Jacobians included in this file?    No

Order of inputs:
     Column   Operating Point                                                   Rotating Frame? Derivative Order Description
   ---------- ---------------                                                   --------------- ---------------- -----------
          1     8.64536476135E+000                                                     F               0         WAMIT X translation displacement, node 1, m
          2    -6.19155406952E-001                                                     F               0         WAMIT Y translation displacement, node 1, m
          3    -1.29289299250E-001                                                     F               0         WAMIT Z translation displacement, node 1, m
          4     9.93685543537E-001,   3.40925855562E-003,  -1.12148933113E-001         F               0         WAMIT X orientation angle, node 1, rad
          5     2.36648134887E-003,   9.98679101467E-001,   5.13272248209E-002         F               0         WAMIT Y orientation angle, node 1, rad
          6     1.12175785005E-001,  -5.12685216963E-002,   9.92364943027E-001         F               0         WAMIT Z orientation angle, node 1, rad
          7    -1.54431749252E-004                                                     F               0         WAMIT X translation velocity, node 1, m/s
          8     7.11015367415E-004                                                     F               0         WAMIT Y translation velocity, node 1, m/s
          9     1.12350062409E-004                                                     F               0         WAMIT Z translation velocity, node 1, m/s
         10    -4.18461968366E-005                                                     F               0         WAMIT X rotation velocity, node 1, rad/s
         11    -6.53387542116E-006                                                     F               0         WAMIT Y rotation velocity, node 1, rad/s
         12     8.15300245449E-006                                                     F               0         WAMIT Z rotation velocity, node 1, rad/s
         13    -2.23409697355E-005                                                     F               0         WAMIT X translation acceleration, node 1, m/s^2
         14     3.36564553436E-004                                                     F               0         WAMIT Y translation acceleration, node 1, m/s^2
         15    -1.97959435172E-003                                                     F               0         WAMIT Z translation acceleration, node 1, m/s^2
         16    -1.58528655447E-005                                                     F               0         WAMIT X rotation acceleration, node 1, rad/s^2
         17    -7.44574390410E-006                                                     F               0         WAMIT Y rotation acceleration, node 1, rad/s^2
         18    -1.19504711620E-005                                                     F               0         WAMIT Z rotation acceleration, node 1, rad/s^2
         19     8.64536476135E+000                                                     F               0         Platform-RefPt X translation displacement, node 1, m
         20    -6.19155406952E-001                                                     F               0         Platform-RefPt Y translation displacement, node 1, m
         21    -1.29289299250E-001                                                     F               0         Platform-RefPt Z translation displacement, node 1, m
         22     9.93685543537E-001,   3.40925855562E-003,  -1.12148933113E-001         F               0         Platform-RefPt X orientation angle, node 1, rad
         23     2.36648134887E-003,   9.98679101467E-001,   5.13272248209E-002         F               0         Platform-RefPt Y orientation angle, node 1, rad
         24     1.12175785005E-001,  -5.12685216963E-002,   9.92364943027E-001         F               0         Platform-RefPt Z orientation angle, node 1, rad
         25    -1.54431749252E-004                                                     F               0         Platform-RefPt X translation velocity, node 1, m/s
         26     7.11015367415E-004                                                     F               0         Platform-RefPt Y translation velocity, node 1, m/s
         27     1.12350062409E-004                                                     F               0         Platform-RefPt Z translation velocity, node 1, m/s
         28    -4.18461968366E-005                                                     F               0         Platform-RefPt X rotation velocity, node 1, rad/s
         29    -6.53387542116E-006                                                     F               0         Platform-RefPt Y rotation velocity, node 1, rad/s
         30     8.15300245449E-006                                                     F               0         Platform-RefPt Z rotation velocity, node 1, rad/s
         31    -2.23409697355E-005                                                     F               0         Platform-RefPt X translation acceleration, node 1, m/s^2
         32     3.36564553436E-004                                                     F               0         Platform-RefPt Y translation acceleration, node 1, m/s^2
         33    -1.97959435172E-003                                                     F               0         Platform-RefPt Z translation acceleration, node 1, m/s^2
         34    -1.58528655447E-005                                                     F               0         Platform-RefPt X rotation acceleration, node 1, rad/s^2
         35    -7.44574390410E-006                                                     F               0         Platform-RefPt Y rotation acceleration, node 1, rad/s^2
         36    -1.19504711620E-005                                                     F               0         Platform-RefPt Z rotation acceleration, node 1, rad/s^2
         37     0.00000000000E+000                                                     F               0         Extended input: wave elevation at platform ref point, m

Order of outputs:
        Row   Operating Point                                                   Rotating Frame? Derivative Order Description
   ---------- ---------------                                                   --------------- ---------------- -----------
          1     0.00000000000E+000                                                     F               0         Wave1Elev, (m)
          2    -5.98046132812E+004                                                     F               0         HydroFxi, (N)
          3    -1.71376208496E+003                                                     F               0         HydroFyi, (N)
          4     2.03951232000E+008                                                     F               0         HydroFzi, (N)
          5    -1.10165056000E+008                                                     F               0         HydroMxi, (N-m)
          6    -2.41110592000E+008                                                     F               0         HydroMyi, (N-m)
          7     2.34120890625E+005                                                     F               0         HydroMzi, (N-m)


Linearized state matrices:

D: 7 x 37
     0.00000000000E+000   0.00000000000E+000   0.00000000000E+000   0.00000000000E+000   0.00000000000E+000   0.00000000000E+000   0.00000000000E+000   0.00000000000E+000   0.00000000000E+000   0.00000000000E+000   0.00000000000E+000   0.00000000000E+000   0.00000000000E+000   0.00000000000E+000   0.00000000000E+000   0.00000000000E+000   0.00000000000E+000   0.00000000000E+000   0.00000000000E+000   0.00000000000E+000   0.00000000000E+000   0.00000000000E+000   0.00000000000E+000   0.00000000000E+000   0.00000000000E+000   0.00000000000E+000   0.00000000000E+000   0.00000000000E+000   0.00000000000E+000   0.00000000000E+000   0.00000000000E+000   0.00000000000E+000   0.00000000000E+000   0.00000000000E+000   0.00000000000E+000   0.00000000000E+000   0.00000000000E+000
    -6.86000294576E+003   0.00000000000E+000   0.00000000000E+000   0.00000000000E+000   0.00000000000E+000   0.00000000000E+000  -2.82173224351E+005   0.00000000000E+000   0.00000000000E+000   0.00000000000E+000   5.59529101142E-002   0.00000000000E+000  -9.38083896931E+006   0.00000000000E+000   1.99671965511E+001   5.59529101142E-002   9.82680351759E+007   0.00000000000E+000   0.00000000000E+000   0.00000000000E+000   0.00000000000E+000   0.00000000000E+000   0.00000000000E+000   0.00000000000E+000   0.00000000000E+000   0.00000000000E+000   0.00000000000E+000   0.00000000000E+000   0.00000000000E+000   0.00000000000E+000   0.00000000000E+000   0.00000000000E+000   0.00000000000E+000   0.00000000000E+000   0.00000000000E+000   0.00000000000E+000   0.00000000000E+000
     0.00000000000E+000   0.00000000000E+000   0.00000000000E+000   0.00000000000E+000   0.00000000000E+000   0.00000000000E+000   0.00000000000E+000  -2.82177189015E+005   0.00000000000E+000   0.00000000000E+000  -1.74852844107E-003   0.00000000000E+000   0.00000000000E+000  -9.38088807999E+006   0.00000000000E+000  -9.82662446828E+007  -1.74852844107E-003   1.78568117338E+003   0.00000000000E+000   0.00000000000E+000   0.00000000000E+000   0.00000000000E+000   0.00000000000E+000   0.00000000000E+000   0.00000000000E+000   0.00000000000E+000   0.00000000000E+000   0.00000000000E+000   0.00000000000E+000   0.00000000000E+000   0.00000000000E+000   0.00000000000E+000   0.00000000000E+000   0.00000000000E+000   0.00000000000E+000   0.00000000000E+000   0.00000000000E+000
     0.00000000000E+000   0.00000000000E+000  -4.39481570682E+006   0.00000000000E+000   3.89611303707E+003   0.00000000000E+000   0.00000000000E+000   0.00000000000E+000  -8.06397214219E+005   0.00000000000E+000   2.29183119828E+002   0.00000000000E+000   0.00000000000E+000   0.00000000000E+000  -2.41346861249E+007   2.29183119828E+002   1.78762833466E+004   0.00000000000E+000   0.00000000000E+000   0.00000000000E+000   0.00000000000E+000   0.00000000000E+000   0.00000000000E+000   0.00000000000E+000   0.00000000000E+000   0.00000000000E+000   0.00000000000E+000   0.00000000000E+000   0.00000000000E+000   0.00000000000E+000   0.00000000000E+000   0.00000000000E+000   0.00000000000E+000   0.00000000000E+000   0.00000000000E+000   0.00000000000E+000   0.00000000000E+000
     0.00000000000E+000   2.03951213579E+008   1.73524370092E+003  -2.13421440373E+009   0.00000000000E+000   8.88084589332E+004   0.00000000000E+000   0.00000000000E+000   0.00000000000E+000  -2.78327750026E+009   0.00000000000E+000   0.00000000000E+000   0.00000000000E+000  -9.82010424842E+007   0.00000000000E+000  -1.13246530020E+010   0.00000000000E+000   5.30558922401E+004   0.00000000000E+000  -2.03951213579E+008  -1.73524370092E+003   0.00000000000E+000   0.00000000000E+000   0.00000000000E+000   0.00000000000E+000   0.00000000000E+000   0.00000000000E+000   0.00000000000E+000   0.00000000000E+000   0.00000000000E+000   0.00000000000E+000   0.00000000000E+000   0.00000000000E+000   0.00000000000E+000   0.00000000000E+000   0.00000000000E+000   0.00000000000E+000
    -2.03951180838E+008   0.00000000000E+000  -5.57897220069E+004   0.00000000000E+000  -2.13398109531E+009   0.00000000000E+000   0.00000000000E+000   0.00000000000E+000   0.00000000000E+000   0.00000000000E+000  -2.78327406252E+009   0.00000000000E+000   9.82035307582E+007   0.00000000000E+000   1.93823447348E+004   2.29183119828E+002  -1.13240525422E+010   0.00000000000E+000   2.03951180838E+008   0.00000000000E+000   5.97185756694E+004   0.00000000000E+000   0.00000000000E+000   0.00000000000E+000   0.00000000000E+000   0.00000000000E+000   0.00000000000E+000   0.00000000000E+000   0.00000000000E+000   0.00000000000E+000   0.00000000000E+000   0.00000000000E+000   0.00000000000E+000   0.00000000000E+000   0.00000000000E+000   0.00000000000E+000   0.00000000000E+000
    -1.71382172864E+003   5.98045832894E+004   0.00000000000E+000   0.00000000000E+000   0.00000000000E+000   0.00000000000E+000   0.00000000000E+000   0.00000000000E+000   0.00000000000E+000   0.00000000000E+000   2.23811640457E-001  -2.51327411660E+009   0.00000000000E+000   1.55370047911E+003   0.00000000000E+000   4.40407593625E+004   2.23811640457E-001  -1.95913504720E+010   1.71382172864E+003  -5.98045832894E+004   0.00000000000E+000   0.00000000000E+000   0.00000000000E+000   0.00000000000E+000   0.00000000000E+000   0.00000000000E+000   0.00000000000E+000   0.00000000000E+000   0.00000000000E+000   0.00000000000E+000   0.00000000000E+000   0.00000000000E+000   0.00000000000E+000   0.00000000000E+000   0.00000000000E+000   0.00000000000E+000   0.00000000000E+000
