
Linearized model: Predictions were generated on 07-Feb-2024 at 11:38:03 using OpenFAST, compiled as a 64-bit application using single precision at commit v3.5.1
 linked with  NWTC Subroutine Library; ElastoDyn; InflowWind; AeroDyn; ServoDyn; HydroDyn; MAP++ (<1.20.10>, <Oct-20-2023>)

Description from the FAST input file: CCT-9 Campign 4 model. Input files to be run with OpenFAST 3.5.0. GitHub branch from Lu Wang (https://github.com/luwang00/openfast/tree/dev) compiled on March 7, 2023.

Simulation information:
   Simulation time:                  1006.4750 s
   Rotor Speed:                         1.0414 rad/s
   Azimuth:                             1.5003 rad
   Wind Speed:                         12.0000 m/s
   Number of continuous states:        22
   Number of discrete states:           0
   Number of constraint states:         0
   Number of inputs:                 1890
   Number of outputs:                  24
   Jacobians included in this file?    No

Order of continuous states:
   Row/Column Operating Point                     Rotating Frame? Derivative Order Description
   ---------- ---------------                     --------------- ---------------- -----------
          1    1.229E+01                                 F               2         Platform horizontal surge translation DOF (internal DOF index = DOF_Sg), m
          2   -2.190E-01                                 F               2         Platform horizontal sway translation DOF (internal DOF index = DOF_Sw), m
          3   -2.522E-01                                 F               2         Platform vertical heave translation DOF (internal DOF index = DOF_Hv), m
          4    5.331E-02                                 F               2         Platform roll tilt rotation DOF (internal DOF index = DOF_R), rad
          5    1.568E-01                                 F               2         Platform pitch tilt rotation DOF (internal DOF index = DOF_P), rad
          6    9.757E-03                                 F               2         Platform yaw rotation DOF (internal DOF index = DOF_Y), rad
          7    1.082E+00                                 F               2         1st tower fore-aft bending mode DOF (internal DOF index = DOF_TFA1), m
          8    2.312E-01                                 F               2         1st tower side-to-side bending mode DOF (internal DOF index = DOF_TSS1), m
          9    1.604E-03                                 F               2         2nd tower fore-aft bending mode DOF (internal DOF index = DOF_TFA2), m
         10    9.655E-05                                 F               2         2nd tower side-to-side bending mode DOF (internal DOF index = DOF_TSS2), m
         11    6.213E+00                                 F               2         Variable speed generator DOF (internal DOF index = DOF_GeAz), rad
         12   -1.793E-04                                 F               2         First time derivative of Platform horizontal surge translation DOF (internal DOF index = DOF_Sg), m/s
         13    3.736E-04                                 F               2         First time derivative of Platform horizontal sway translation DOF (internal DOF index = DOF_Sw), m/s
         14    4.873E-03                                 F               2         First time derivative of Platform vertical heave translation DOF (internal DOF index = DOF_Hv), m/s
         15    4.346E-04                                 F               2         First time derivative of Platform roll tilt rotation DOF (internal DOF index = DOF_R), rad/s
         16   -9.456E-05                                 F               2         First time derivative of Platform pitch tilt rotation DOF (internal DOF index = DOF_P), rad/s
         17    1.881E-04                                 F               2         First time derivative of Platform yaw rotation DOF (internal DOF index = DOF_Y), rad/s
         18   -1.601E-03                                 F               2         First time derivative of 1st tower fore-aft bending mode DOF (internal DOF index = DOF_TFA1), m/s
         19    4.166E-03                                 F               2         First time derivative of 1st tower side-to-side bending mode DOF (internal DOF index = DOF_TSS1), m/s
         20   -2.108E-06                                 F               2         First time derivative of 2nd tower fore-aft bending mode DOF (internal DOF index = DOF_TFA2), m/s
         21   -1.520E-06                                 F               2         First time derivative of 2nd tower side-to-side bending mode DOF (internal DOF index = DOF_TSS2), m/s
         22    1.041E+00                                 F               2         First time derivative of Variable speed generator DOF (internal DOF index = DOF_GeAz), rad/s

Order of continuous state derivatives:
   Row/Column Operating Point                     Rotating Frame? Derivative Order Description
   ---------- ---------------                     --------------- ---------------- -----------
          1   -1.793E-04                                 F               2         First time derivative of Platform horizontal surge translation DOF (internal DOF index = DOF_Sg), m/s
          2    3.736E-04                                 F               2         First time derivative of Platform horizontal sway translation DOF (internal DOF index = DOF_Sw), m/s
          3    4.873E-03                                 F               2         First time derivative of Platform vertical heave translation DOF (internal DOF index = DOF_Hv), m/s
          4    4.346E-04                                 F               2         First time derivative of Platform roll tilt rotation DOF (internal DOF index = DOF_R), rad/s
          5   -9.456E-05                                 F               2         First time derivative of Platform pitch tilt rotation DOF (internal DOF index = DOF_P), rad/s
          6    1.881E-04                                 F               2         First time derivative of Platform yaw rotation DOF (internal DOF index = DOF_Y), rad/s
          7   -1.601E-03                                 F               2         First time derivative of 1st tower fore-aft bending mode DOF (internal DOF index = DOF_TFA1), m/s
          8    4.166E-03                                 F               2         First time derivative of 1st tower side-to-side bending mode DOF (internal DOF index = DOF_TSS1), m/s
          9   -2.108E-06                                 F               2         First time derivative of 2nd tower fore-aft bending mode DOF (internal DOF index = DOF_TFA2), m/s
         10   -1.520E-06                                 F               2         First time derivative of 2nd tower side-to-side bending mode DOF (internal DOF index = DOF_TSS2), m/s
         11    1.041E+00                                 F               2         First time derivative of Variable speed generator DOF (internal DOF index = DOF_GeAz), rad/s
         12    9.109E-05                                 F               2         First time derivative of First time derivative of Platform horizontal surge translation DOF (internal DOF index = DOF_Sg), m/s/s
         13   -4.078E-04                                 F               2         First time derivative of First time derivative of Platform horizontal sway translation DOF (internal DOF index = DOF_Sw), m/s/s
         14    1.040E-03                                 F               2         First time derivative of First time derivative of Platform vertical heave translation DOF (internal DOF index = DOF_Hv), m/s/s
         15   -3.827E-04                                 F               2         First time derivative of First time derivative of Platform roll tilt rotation DOF (internal DOF index = DOF_R), rad/s/s
         16   -1.580E-05                                 F               2         First time derivative of First time derivative of Platform pitch tilt rotation DOF (internal DOF index = DOF_P), rad/s/s
         17    1.417E-04                                 F               2         First time derivative of First time derivative of Platform yaw rotation DOF (internal DOF index = DOF_Y), rad/s/s
         18    5.426E-03                                 F               2         First time derivative of First time derivative of 1st tower fore-aft bending mode DOF (internal DOF index = DOF_TFA1), m/s/s
         19   -4.116E-03                                 F               2         First time derivative of First time derivative of 1st tower side-to-side bending mode DOF (internal DOF index = DOF_TSS1), m/s/s
         20    2.640E-05                                 F               2         First time derivative of First time derivative of 2nd tower fore-aft bending mode DOF (internal DOF index = DOF_TFA2), m/s/s
         21   -3.451E-06                                 F               2         First time derivative of First time derivative of 2nd tower side-to-side bending mode DOF (internal DOF index = DOF_TSS2), m/s/s
         22    6.451E-04                                 F               2         First time derivative of First time derivative of Variable speed generator DOF (internal DOF index = DOF_GeAz), rad/s/s

Order of inputs:
     Column   Operating Point                     Rotating Frame? Derivative Order Description
   ---------- ---------------                     --------------- ---------------- -----------
          1    1.685E+02                                 F               0         Blade 1 X force, node 1, N
          2    6.145E+00                                 F               0         Blade 1 Y force, node 1, N
          3    1.777E+02                                 F               0         Blade 1 Z force, node 1, N
          4    5.499E+02                                 F               0         Blade 1 X force, node 2, N
          5    1.585E+01                                 F               0         Blade 1 Y force, node 2, N
          6    2.225E+02                                 F               0         Blade 1 Z force, node 2, N
          7    6.226E+02                                 F               0         Blade 1 X force, node 3, N
          8    1.620E+01                                 F               0         Blade 1 Y force, node 3, N
          9    1.035E+02                                 F               0         Blade 1 Z force, node 3, N
         10    7.559E+02                                 F               0         Blade 1 X force, node 4, N
         11    1.841E+01                                 F               0         Blade 1 Y force, node 4, N
         12    1.773E+01                                 F               0         Blade 1 Z force, node 4, N
         13    8.892E+02                                 F               0         Blade 1 X force, node 5, N
         14    2.061E+01                                 F               0         Blade 1 Y force, node 5, N
         15   -6.804E+01                                 F               0         Blade 1 Z force, node 5, N
         16    1.023E+03                                 F               0         Blade 1 X force, node 6, N
         17    2.281E+01                                 F               0         Blade 1 Y force, node 6, N
         18   -1.538E+02                                 F               0         Blade 1 Z force, node 6, N
         19    1.156E+03                                 F               0         Blade 1 X force, node 7, N
         20    2.501E+01                                 F               0         Blade 1 Y force, node 7, N
         21   -2.396E+02                                 F               0         Blade 1 Z force, node 7, N
         22    1.289E+03                                 F               0         Blade 1 X force, node 8, N
         23    2.721E+01                                 F               0         Blade 1 Y force, node 8, N
         24   -3.254E+02                                 F               0         Blade 1 Z force, node 8, N
         25    1.422E+03                                 F               0         Blade 1 X force, node 9, N
         26    2.941E+01                                 F               0         Blade 1 Y force, node 9, N
         27   -4.111E+02                                 F               0         Blade 1 Z force, node 9, N
         28    1.556E+03                                 F               0         Blade 1 X force, node 10, N
         29    3.161E+01                                 F               0         Blade 1 Y force, node 10, N
         30   -4.969E+02                                 F               0         Blade 1 Z force, node 10, N
         31    1.689E+03                                 F               0         Blade 1 X force, node 11, N
         32    3.381E+01                                 F               0         Blade 1 Y force, node 11, N
         33   -5.827E+02                                 F               0         Blade 1 Z force, node 11, N
         34    1.822E+03                                 F               0         Blade 1 X force, node 12, N
         35    3.601E+01                                 F               0         Blade 1 Y force, node 12, N
         36   -6.684E+02                                 F               0         Blade 1 Z force, node 12, N
         37    1.956E+03                                 F               0         Blade 1 X force, node 13, N
         38    3.822E+01                                 F               0         Blade 1 Y force, node 13, N
         39   -7.542E+02                                 F               0         Blade 1 Z force, node 13, N
         40    2.089E+03                                 F               0         Blade 1 X force, node 14, N
         41    4.042E+01                                 F               0         Blade 1 Y force, node 14, N
         42   -8.400E+02                                 F               0         Blade 1 Z force, node 14, N
         43    2.222E+03                                 F               0         Blade 1 X force, node 15, N
         44    4.262E+01                                 F               0         Blade 1 Y force, node 15, N
         45   -9.258E+02                                 F               0         Blade 1 Z force, node 15, N
         46    2.356E+03                                 F               0         Blade 1 X force, node 16, N
         47    4.482E+01                                 F               0         Blade 1 Y force, node 16, N
         48   -1.012E+03                                 F               0         Blade 1 Z force, node 16, N
         49    2.891E+03                                 F               0         Blade 1 X force, node 17, N
         50    5.464E+01                                 F               0         Blade 1 Y force, node 17, N
         51   -1.272E+03                                 F               0         Blade 1 Z force, node 17, N
         52    2.242E+03                                 F               0         Blade 1 X force, node 18, N
         53    4.246E+01                                 F               0         Blade 1 Y force, node 18, N
         54   -9.787E+02                                 F               0         Blade 1 Z force, node 18, N
         55    2.805E+03                                 F               0         Blade 1 X force, node 19, N
         56    5.338E+01                                 F               0         Blade 1 Y force, node 19, N
         57   -1.202E+03                                 F               0         Blade 1 Z force, node 19, N
         58    2.433E+03                                 F               0         Blade 1 X force, node 20, N
         59    4.652E+01                                 F               0         Blade 1 Y force, node 20, N
         60   -1.026E+03                                 F               0         Blade 1 Z force, node 20, N
         61    3.663E+03                                 F               0         Blade 1 X force, node 21, N
         62    7.036E+01                                 F               0         Blade 1 Y force, node 21, N
         63   -1.516E+03                                 F               0         Blade 1 Z force, node 21, N
         64    3.292E+03                                 F               0         Blade 1 X force, node 22, N
         65    6.354E+01                                 F               0         Blade 1 Y force, node 22, N
         66   -1.336E+03                                 F               0         Blade 1 Z force, node 22, N
         67    3.433E+03                                 F               0         Blade 1 X force, node 23, N
         68    6.655E+01                                 F               0         Blade 1 Y force, node 23, N
         69   -1.370E+03                                 F               0         Blade 1 Z force, node 23, N
         70    3.637E+03                                 F               0         Blade 1 X force, node 24, N
         71    7.077E+01                                 F               0         Blade 1 Y force, node 24, N
         72   -1.428E+03                                 F               0         Blade 1 Z force, node 24, N
         73    3.777E+03                                 F               0         Blade 1 X force, node 25, N
         74    7.377E+01                                 F               0         Blade 1 Y force, node 25, N
         75   -1.459E+03                                 F               0         Blade 1 Z force, node 25, N
         76    3.937E+03                                 F               0         Blade 1 X force, node 26, N
         77    7.717E+01                                 F               0         Blade 1 Y force, node 26, N
         78   -1.497E+03                                 F               0         Blade 1 Z force, node 26, N
         79    4.774E+03                                 F               0         Blade 1 X force, node 27, N
         80    9.392E+01                                 F               0         Blade 1 Y force, node 27, N
         81   -1.787E+03                                 F               0         Blade 1 Z force, node 27, N
         82    3.579E+03                                 F               0         Blade 1 X force, node 28, N
         83    7.064E+01                                 F               0         Blade 1 Y force, node 28, N
         84   -1.320E+03                                 F               0         Blade 1 Z force, node 28, N
         85    4.417E+03                                 F               0         Blade 1 X force, node 29, N
         86    8.741E+01                                 F               0         Blade 1 Y force, node 29, N
         87   -1.609E+03                                 F               0         Blade 1 Z force, node 29, N
         88    3.789E+03                                 F               0         Blade 1 X force, node 30, N
         89    7.517E+01                                 F               0         Blade 1 Y force, node 30, N
         90   -1.364E+03                                 F               0         Blade 1 Z force, node 30, N
         91    5.524E+03                                 F               0         Blade 1 X force, node 31, N
         92    1.099E+02                                 F               0         Blade 1 Y force, node 31, N
         93   -1.962E+03                                 F               0         Blade 1 Z force, node 31, N
         94    4.895E+03                                 F               0         Blade 1 X force, node 32, N
         95    9.766E+01                                 F               0         Blade 1 Y force, node 32, N
         96   -1.715E+03                                 F               0         Blade 1 Z force, node 32, N
         97    5.052E+03                                 F               0         Blade 1 X force, node 33, N
         98    1.011E+02                                 F               0         Blade 1 Y force, node 33, N
         99   -1.750E+03                                 F               0         Blade 1 Z force, node 33, N
        100    5.211E+03                                 F               0         Blade 1 X force, node 34, N
        101    1.045E+02                                 F               0         Blade 1 Y force, node 34, N
        102   -1.784E+03                                 F               0         Blade 1 Z force, node 34, N
        103    5.369E+03                                 F               0         Blade 1 X force, node 35, N
        104    1.079E+02                                 F               0         Blade 1 Y force, node 35, N
        105   -1.817E+03                                 F               0         Blade 1 Z force, node 35, N
        106    5.526E+03                                 F               0         Blade 1 X force, node 36, N
        107    1.113E+02                                 F               0         Blade 1 Y force, node 36, N
        108   -1.850E+03                                 F               0         Blade 1 Z force, node 36, N
        109    6.651E+03                                 F               0         Blade 1 X force, node 37, N
        110    1.342E+02                                 F               0         Blade 1 Y force, node 37, N
        111   -2.202E+03                                 F               0         Blade 1 Z force, node 37, N
        112    4.872E+03                                 F               0         Blade 1 X force, node 38, N
        113    9.853E+01                                 F               0         Blade 1 Y force, node 38, N
        114   -1.596E+03                                 F               0         Blade 1 Z force, node 38, N
        115    5.999E+03                                 F               0         Blade 1 X force, node 39, N
        116    1.215E+02                                 F               0         Blade 1 Y force, node 39, N
        117   -1.948E+03                                 F               0         Blade 1 Z force, node 39, N
        118    5.138E+03                                 F               0         Blade 1 X force, node 40, N
        119    1.042E+02                                 F               0         Blade 1 Y force, node 40, N
        120   -1.655E+03                                 F               0         Blade 1 Z force, node 40, N
        121    7.334E+03                                 F               0         Blade 1 X force, node 41, N
        122    1.491E+02                                 F               0         Blade 1 Y force, node 41, N
        123   -2.339E+03                                 F               0         Blade 1 Z force, node 41, N
        124    6.470E+03                                 F               0         Blade 1 X force, node 42, N
        125    1.317E+02                                 F               0         Blade 1 Y force, node 42, N
        126   -2.043E+03                                 F               0         Blade 1 Z force, node 42, N
        127    6.625E+03                                 F               0         Blade 1 X force, node 43, N
        128    1.351E+02                                 F               0         Blade 1 Y force, node 43, N
        129   -2.074E+03                                 F               0         Blade 1 Z force, node 43, N
        130    6.816E+03                                 F               0         Blade 1 X force, node 44, N
        131    1.392E+02                                 F               0         Blade 1 Y force, node 44, N
        132   -2.116E+03                                 F               0         Blade 1 Z force, node 44, N
        133    6.899E+03                                 F               0         Blade 1 X force, node 45, N
        134    1.411E+02                                 F               0         Blade 1 Y force, node 45, N
        135   -2.124E+03                                 F               0         Blade 1 Z force, node 45, N
        136    7.090E+03                                 F               0         Blade 1 X force, node 46, N
        137    1.452E+02                                 F               0         Blade 1 Y force, node 46, N
        138   -2.165E+03                                 F               0         Blade 1 Z force, node 46, N
        139    8.517E+03                                 F               0         Blade 1 X force, node 47, N
        140    1.747E+02                                 F               0         Blade 1 Y force, node 47, N
        141   -2.579E+03                                 F               0         Blade 1 Z force, node 47, N
        142    6.126E+03                                 F               0         Blade 1 X force, node 48, N
        143    1.258E+02                                 F               0         Blade 1 Y force, node 48, N
        144   -1.840E+03                                 F               0         Blade 1 Z force, node 48, N
        145    7.552E+03                                 F               0         Blade 1 X force, node 49, N
        146    1.553E+02                                 F               0         Blade 1 Y force, node 49, N
        147   -2.254E+03                                 F               0         Blade 1 Z force, node 49, N
        148    6.478E+03                                 F               0         Blade 1 X force, node 50, N
        149    1.334E+02                                 F               0         Blade 1 Y force, node 50, N
        150   -1.921E+03                                 F               0         Blade 1 Z force, node 50, N
        151    9.087E+03                                 F               0         Blade 1 X force, node 51, N
        152    1.873E+02                                 F               0         Blade 1 Y force, node 51, N
        153   -2.675E+03                                 F               0         Blade 1 Z force, node 51, N
        154    8.014E+03                                 F               0         Blade 1 X force, node 52, N
        155    1.654E+02                                 F               0         Blade 1 Y force, node 52, N
        156   -2.342E+03                                 F               0         Blade 1 Z force, node 52, N
        157    8.170E+03                                 F               0         Blade 1 X force, node 53, N
        158    1.688E+02                                 F               0         Blade 1 Y force, node 53, N
        159   -2.372E+03                                 F               0         Blade 1 Z force, node 53, N
        160    8.416E+03                                 F               0         Blade 1 X force, node 54, N
        161    1.741E+02                                 F               0         Blade 1 Y force, node 54, N
        162   -2.428E+03                                 F               0         Blade 1 Z force, node 54, N
        163    8.387E+03                                 F               0         Blade 1 X force, node 55, N
        164    1.736E+02                                 F               0         Blade 1 Y force, node 55, N
        165   -2.404E+03                                 F               0         Blade 1 Z force, node 55, N
        166    8.632E+03                                 F               0         Blade 1 X force, node 56, N
        167    1.789E+02                                 F               0         Blade 1 Y force, node 56, N
        168   -2.459E+03                                 F               0         Blade 1 Z force, node 56, N
        169    1.038E+04                                 F               0         Blade 1 X force, node 57, N
        170    2.153E+02                                 F               0         Blade 1 Y force, node 57, N
        171   -2.937E+03                                 F               0         Blade 1 Z force, node 57, N
        172    7.348E+03                                 F               0         Blade 1 X force, node 58, N
        173    1.526E+02                                 F               0         Blade 1 Y force, node 58, N
        174   -2.067E+03                                 F               0         Blade 1 Z force, node 58, N
        175    9.094E+03                                 F               0         Blade 1 X force, node 59, N
        176    1.890E+02                                 F               0         Blade 1 Y force, node 59, N
        177   -2.545E+03                                 F               0         Blade 1 Z force, node 59, N
        178    7.830E+03                                 F               0         Blade 1 X force, node 60, N
        179    1.629E+02                                 F               0         Blade 1 Y force, node 60, N
        180   -2.181E+03                                 F               0         Blade 1 Z force, node 60, N
        181    1.082E+04                                 F               0         Blade 1 X force, node 61, N
        182    2.252E+02                                 F               0         Blade 1 Y force, node 61, N
        183   -2.995E+03                                 F               0         Blade 1 Z force, node 61, N
        184    9.550E+03                                 F               0         Blade 1 X force, node 62, N