
Linearized model: Predictions were generated on 12-Jan-2024 at 09:28:28 using OpenFAST, compiled as a 64-bit application using single precision at commit v3.5.1
 linked with  NWTC Subroutine Library; ElastoDyn; InflowWind; AeroDyn; ServoDyn; HydroDyn; MAP++ (<1.20.10>, <Oct-20-2023>)

Description from the FAST input file: CCT-9 Campign 4 model. Input files to be run with OpenFAST 3.5.0. GitHub branch from Lu Wang (https://github.com/luwang00/openfast/tree/dev) compiled on March 7, 2023.

Simulation information:
   Simulation time:                   506.6750 s
   Rotor Speed:                         0.8779 rad/s
   Azimuth:                             3.4284 rad
   Wind Speed:                         10.0000 m/s
   Number of continuous states:         0
   Number of discrete states:           0
   Number of constraint states:         0
   Number of inputs:                 1746
   Number of outputs:                   4
   Jacobians included in this file?    No

Order of inputs:
     Column   Operating Point                     Rotating Frame? Derivative Order Description
   ---------- ---------------                     --------------- ---------------- -----------
          1    1.099E+01                                 F               0         Tower X translation displacement, node 1, m
          2   -1.217E+00                                 F               0         Tower Y translation displacement, node 1, m
          3   -3.131E-01                                 F               0         Tower Z translation displacement, node 1, m
          4    1.246E+01                                 F               0         Tower X translation displacement, node 2, m
          5   -1.797E+00                                 F               0         Tower Y translation displacement, node 2, m
          6   -4.143E-01                                 F               0         Tower Z translation displacement, node 2, m
          7    1.395E+01                                 F               0         Tower X translation displacement, node 3, m
          8   -2.383E+00                                 F               0         Tower Y translation displacement, node 3, m
          9   -5.188E-01                                 F               0         Tower Z translation displacement, node 3, m
         10    1.546E+01                                 F               0         Tower X translation displacement, node 4, m
         11   -2.974E+00                                 F               0         Tower Y translation displacement, node 4, m
         12   -6.257E-01                                 F               0         Tower Z translation displacement, node 4, m
         13    1.699E+01                                 F               0         Tower X translation displacement, node 5, m
         14   -3.569E+00                                 F               0         Tower Y translation displacement, node 5, m
         15   -7.348E-01                                 F               0         Tower Z translation displacement, node 5, m
         16    1.853E+01                                 F               0         Tower X translation displacement, node 6, m
         17   -4.167E+00                                 F               0         Tower Y translation displacement, node 6, m
         18   -8.456E-01                                 F               0         Tower Z translation displacement, node 6, m
         19    2.007E+01                                 F               0         Tower X translation displacement, node 7, m
         20   -4.767E+00                                 F               0         Tower Y translation displacement, node 7, m
         21   -9.576E-01                                 F               0         Tower Z translation displacement, node 7, m
         22    2.163E+01                                 F               0         Tower X translation displacement, node 8, m
         23   -5.370E+00                                 F               0         Tower Y translation displacement, node 8, m
         24   -1.071E+00                                 F               0         Tower Z translation displacement, node 8, m
         25    2.319E+01                                 F               0         Tower X translation displacement, node 9, m
         26   -5.974E+00                                 F               0         Tower Y translation displacement, node 9, m
         27   -1.185E+00                                 F               0         Tower Z translation displacement, node 9, m
         28    2.475E+01                                 F               0         Tower X translation displacement, node 10, m
         29   -6.579E+00                                 F               0         Tower Y translation displacement, node 10, m
         30   -1.299E+00                                 F               0         Tower Z translation displacement, node 10, m
         31    2.632E+01                                 F               0         Tower X translation displacement, node 11, m
         32   -7.185E+00                                 F               0         Tower Y translation displacement, node 11, m
         33   -1.414E+00                                 F               0         Tower Z translation displacement, node 11, m
         34    9.930E-01,  1.008E-02, -1.177E-01         F               0         Tower X orientation angle, node 1, rad
         35   -4.490E-03,  9.989E-01,  4.767E-02         F               0         Tower Y orientation angle, node 1, rad
         36    1.180E-01, -4.681E-02,  9.919E-01         F               0         Tower Z orientation angle, node 1, rad
         37    9.928E-01,  1.017E-02, -1.195E-01         F               0         Tower X orientation angle, node 2, rad
         38   -4.436E-03,  9.988E-01,  4.811E-02         F               0         Tower Y orientation angle, node 2, rad
         39    1.199E-01, -4.724E-02,  9.917E-01         F               0         Tower Z orientation angle, node 2, rad
         40    9.926E-01,  1.025E-02, -1.212E-01         F               0         Tower X orientation angle, node 3, rad
         41   -4.388E-03,  9.988E-01,  4.851E-02         F               0         Tower Y orientation angle, node 3, rad
         42    1.215E-01, -4.762E-02,  9.914E-01         F               0         Tower Z orientation angle, node 3, rad
         43    9.924E-01,  1.031E-02, -1.225E-01         F               0         Tower X orientation angle, node 4, rad
         44   -4.345E-03,  9.988E-01,  4.886E-02         F               0         Tower Y orientation angle, node 4, rad
         45    1.229E-01, -4.796E-02,  9.913E-01         F               0         Tower Z orientation angle, node 4, rad
         46    9.923E-01,  1.037E-02, -1.237E-01         F               0         Tower X orientation angle, node 5, rad
         47   -4.307E-03,  9.988E-01,  4.916E-02         F               0         Tower Y orientation angle, node 5, rad
         48    1.240E-01, -4.825E-02,  9.911E-01         F               0         Tower Z orientation angle, node 5, rad
         49    9.922E-01,  1.041E-02, -1.246E-01         F               0         Tower X orientation angle, node 6, rad
         50   -4.276E-03,  9.988E-01,  4.942E-02         F               0         Tower Y orientation angle, node 6, rad
         51    1.249E-01, -4.850E-02,  9.910E-01         F               0         Tower Z orientation angle, node 6, rad
         52    9.921E-01,  1.044E-02, -1.252E-01         F               0         Tower X orientation angle, node 7, rad
         53   -4.250E-03,  9.988E-01,  4.962E-02         F               0         Tower Y orientation angle, node 7, rad
         54    1.256E-01, -4.869E-02,  9.909E-01         F               0         Tower Z orientation angle, node 7, rad
         55    9.920E-01,  1.047E-02, -1.257E-01         F               0         Tower X orientation angle, node 8, rad
         56   -4.231E-03,  9.988E-01,  4.977E-02         F               0         Tower Y orientation angle, node 8, rad
         57    1.261E-01, -4.884E-02,  9.908E-01         F               0         Tower Z orientation angle, node 8, rad
         58    9.920E-01,  1.049E-02, -1.261E-01         F               0         Tower X orientation angle, node 9, rad
         59   -4.216E-03,  9.987E-01,  4.989E-02         F               0         Tower Y orientation angle, node 9, rad
         60    1.264E-01, -4.896E-02,  9.908E-01         F               0         Tower Z orientation angle, node 9, rad
         61    9.919E-01,  1.050E-02, -1.263E-01         F               0         Tower X orientation angle, node 10, rad
         62   -4.207E-03,  9.987E-01,  4.996E-02         F               0         Tower Y orientation angle, node 10, rad
         63    1.267E-01, -4.903E-02,  9.907E-01         F               0         Tower Z orientation angle, node 10, rad
         64    9.919E-01,  1.050E-02, -1.264E-01         F               0         Tower X orientation angle, node 11, rad
         65   -4.201E-03,  9.987E-01,  5.000E-02         F               0         Tower Y orientation angle, node 11, rad
         66    1.268E-01, -4.907E-02,  9.907E-01         F               0         Tower Z orientation angle, node 11, rad
         67   -4.423E-03                                 F               0         Tower X translation velocity, node 1, m/s
         68    6.016E-03                                 F               0         Tower Y translation velocity, node 1, m/s
         69    5.156E-03                                 F               0         Tower Z translation velocity, node 1, m/s
         70   -4.427E-03                                 F               0         Tower X translation velocity, node 2, m/s
         71    9.762E-03                                 F               0         Tower Y translation velocity, node 2, m/s
         72    5.334E-03                                 F               0         Tower Z translation velocity, node 2, m/s
         73   -4.469E-03                                 F               0         Tower X translation velocity, node 3, m/s
         74    1.369E-02                                 F               0         Tower Y translation velocity, node 3, m/s
         75    5.527E-03                                 F               0         Tower Z translation velocity, node 3, m/s
         76   -4.541E-03                                 F               0         Tower X translation velocity, node 4, m/s
         77    1.777E-02                                 F               0         Tower Y translation velocity, node 4, m/s
         78    5.732E-03                                 F               0         Tower Z translation velocity, node 4, m/s
         79   -4.638E-03                                 F               0         Tower X translation velocity, node 5, m/s
         80    2.198E-02                                 F               0         Tower Y translation velocity, node 5, m/s
         81    5.949E-03                                 F               0         Tower Z translation velocity, node 5, m/s
         82   -4.758E-03                                 F               0         Tower X translation velocity, node 6, m/s
         83    2.629E-02                                 F               0         Tower Y translation velocity, node 6, m/s
         84    6.174E-03                                 F               0         Tower Z translation velocity, node 6, m/s
         85   -4.895E-03                                 F               0         Tower X translation velocity, node 7, m/s
         86    3.070E-02                                 F               0         Tower Y translation velocity, node 7, m/s
         87    6.408E-03                                 F               0         Tower Z translation velocity, node 7, m/s
         88   -5.048E-03                                 F               0         Tower X translation velocity, node 8, m/s
         89    3.518E-02                                 F               0         Tower Y translation velocity, node 8, m/s
         90    6.648E-03                                 F               0         Tower Z translation velocity, node 8, m/s
         91   -5.212E-03                                 F               0         Tower X translation velocity, node 9, m/s
         92    3.972E-02                                 F               0         Tower Y translation velocity, node 9, m/s
         93    6.893E-03                                 F               0         Tower Z translation velocity, node 9, m/s
         94   -5.384E-03                                 F               0         Tower X translation velocity, node 10, m/s
         95    4.431E-02                                 F               0         Tower Y translation velocity, node 10, m/s
         96    7.142E-03                                 F               0         Tower Z translation velocity, node 10, m/s
         97   -5.561E-03                                 F               0         Tower X translation velocity, node 11, m/s
         98    4.892E-02                                 F               0         Tower Y translation velocity, node 11, m/s
         99    7.393E-03                                 F               0         Tower Z translation velocity, node 11, m/s
        100    2.740E+01                                 F               0         Hub X translation displacement, node 1, m
        101   -7.684E+00                                 F               0         Hub Y translation displacement, node 1, m
        102   -1.212E-01                                 F               0         Hub Z translation displacement, node 1, m
        103    9.732E-01,  1.557E-02, -2.293E-01         F               0         Hub X orientation angle, node 1, rad
        104   -6.096E-02, -9.445E-01, -3.229E-01         F               0         Hub Y orientation angle, node 1, rad
        105   -2.216E-01,  3.283E-01, -9.182E-01         F               0         Hub Z orientation angle, node 1, rad
        106    8.541E-01                                 F               0         Hub X rotation velocity, node 1, rad/s
        107    1.365E-02                                 F               0         Hub Y rotation velocity, node 1, rad/s
        108   -2.011E-01                                 F               0         Hub Z rotation velocity, node 1, rad/s
        109    9.746E-01,  4.358E-02, -2.196E-01         F               0         Blade root 1 X orientation angle, node 1, rad
        110   -3.206E-02, -9.436E-01, -3.296E-01         F               0         Blade root 1 Y orientation angle, node 1, rad
        111   -2.216E-01,  3.283E-01, -9.182E-01         F               0         Blade root 1 Z orientation angle, node 1, rad
        112    9.776E-01, -6.877E-03, -2.104E-01         F               0         Blade root 2 X orientation angle, node 1, rad
        113   -1.324E-01,  7.567E-01, -6.403E-01         F               0         Blade root 2 Y orientation angle, node 1, rad
        114    1.636E-01,  6.538E-01,  7.388E-01         F               0         Blade root 2 Z orientation angle, node 1, rad
        115    9.662E-01,  9.991E-03, -2.575E-01         F               0         Blade root 3 X orientation angle, node 1, rad
        116    2.511E-01,  1.883E-01,  9.495E-01         F               0         Blade root 3 Y orientation angle, node 1, rad
        117    5.798E-02, -9.821E-01,  1.794E-01         F               0         Blade root 3 Z orientation angle, node 1, rad
        118    2.560E+01                                 F               0         Blade 1 X translation displacement, node 1, m
        119   -5.865E+00                                 F               0         Blade 1 Y translation displacement, node 1, m
        120   -1.072E+01                                 F               0         Blade 1 Z translation displacement, node 1, m
        121    2.516E+01                                 F               0         Blade 1 X translation displacement, node 2, m
        122   -5.427E+00                                 F               0         Blade 1 Y translation displacement, node 2, m
        123   -1.327E+01                                 F               0         Blade 1 Z translation displacement, node 2, m
        124    1.924E+01                                 F               0         Blade 1 X translation displacement, node 3, m
        125    5.319E-01                                 F               0         Blade 1 Y translation displacement, node 3, m
        126   -4.799E+01                                 F               0         Blade 1 Z translation displacement, node 3, m
        127    1.798E+01                                 F               0         Blade 1 X translation displacement, node 4, m
        128    1.802E+00                                 F               0         Blade 1 Y translation displacement, node 4, m
        129   -5.539E+01                                 F               0         Blade 1 Z translation displacement, node 4, m
        130    1.672E+01                                 F               0         Blade 1 X translation displacement, node 5, m
        131    3.071E+00                                 F               0         Blade 1 Y translation displacement, node 5, m
        132   -6.279E+01                                 F               0         Blade 1 Z translation displacement, node 5, m
        133    1.546E+01                                 F               0         Blade 1 X translation displacement, node 6, m
        134    4.341E+00                                 F               0         Blade 1 Y translation displacement, node 6, m
        135   -7.019E+01                                 F               0         Blade 1 Z translation displacement, node 6, m
        136    1.420E+01                                 F               0         Blade 1 X translation displacement, node 7, m
        137    5.611E+00                                 F               0         Blade 1 Y translation displacement, node 7, m
        138   -7.758E+01                                 F               0         Blade 1 Z translation displacement, node 7, m
        139    1.293E+01                                 F               0         Blade 1 X translation displacement, node 8, m
        140    6.880E+00                                 F               0         Blade 1 Y translation displacement, node 8, m
        141   -8.498E+01                                 F               0         Blade 1 Z translation displacement, node 8, m
        142    1.167E+01                                 F               0         Blade 1 X translation displacement, node 9, m
        143    8.150E+00                                 F               0         Blade 1 Y translation displacement, node 9, m
        144   -9.238E+01                                 F               0         Blade 1 Z translation displacement, node 9, m
        145    1.041E+01                                 F               0         Blade 1 X translation displacement, node 10, m
        146    9.420E+00                                 F               0         Blade 1 Y translation displacement, node 10, m
        147   -9.978E+01                                 F               0         Blade 1 Z translation displacement, node 10, m
        148    9.152E+00                                 F               0         Blade 1 X translation displacement, node 11, m
        149    1.069E+01                                 F               0         Blade 1 Y translation displacement, node 11, m
        150   -1.072E+02                                 F               0         Blade 1 Z translation displacement, node 11, m
        151    7.890E+00                                 F               0         Blade 1 X translation displacement, node 12, m
        152    1.196E+01                                 F               0         Blade 1 Y translation displacement, node 12, m
        153   -1.146E+02                                 F               0         Blade 1 Z translation displacement, node 12, m
        154    6.629E+00                                 F               0         Blade 1 X translation displacement, node 13, m
        155    1.323E+01                                 F               0         Blade 1 Y translation displacement, node 13, m
        156   -1.220E+02                                 F               0         Blade 1 Z translation displacement, node 13, m
        157    5.368E+00                                 F               0         Blade 1 X translation displacement, node 14, m
        158    1.450E+01                                 F               0         Blade 1 Y translation displacement, node 14, m
        159   -1.294E+02                                 F               0         Blade 1 Z translation displacement, node 14, m
        160    4.107E+00                                 F               0         Blade 1 X translation displacement, node 15, m
        161    1.577E+01                                 F               0         Blade 1 Y translation displacement, node 15, m
        162   -1.368E+02                                 F               0         Blade 1 Z translation displacement, node 15, m
        163    2.845E+00                                 F               0         Blade 1 X translation displacement, node 16, m
        164    1.704E+01                                 F               0         Blade 1 Y translation displacement, node 16, m
        165   -1.442E+02                                 F               0         Blade 1 Z translation displacement, node 16, m
        166    1.584E+00                                 F               0         Blade 1 X translation displacement, node 17, m
        167    1.831E+01                                 F               0         Blade 1 Y translation displacement, node 17, m
        168   -1.516E+02                                 F               0         Blade 1 Z translation displacement, node 17, m
        169    3.232E-01                                 F               0         Blade 1 X translation displacement, node 18, m
        170    1.958E+01                                 F               0         Blade 1 Y translation displacement, node 18, m
        171   -1.590E+02                                 F               0         Blade 1 Z translation displacement, node 18, m
        172   -9.381E-01                                 F               0         Blade 1 X translation displacement, node 19, m
        173    2.085E+01                                 F               0         Blade 1 Y translation displacement, node 19, m
        174   -1.664E+02                                 F               0         Blade 1 Z translation displacement, node 19, m
        175   -2.199E+00                                 F               0         Blade 1 X translation displacement, node 20, m
        176    2.212E+01                                 F               0         Blade 1 Y translation displacement, node 20, m
        177   -1.738E+02                                 F               0         Blade 1 Z translation displacement, node 20, m
        178   -3.460E+00                                 F               0         Blade 1 X translation displacement, node 21, m
        179    2.339E+01                                 F               0         Blade 1 Y translation displacement, node 21, m
        180   -1.812E+02                                 F               0         Blade 1 Z translation displacement, node 21, m
        181   -4.722E+00                                 F               0         Blade 1 X translation displacement, node 22, m
        182    2.466E+01                                 F               0         Blade 1 Y translation displacement, node 22, m
        183   -1.886E+02                                 F               0         Blade 1 Z translation displacement, node 22, m
        184   -5.983E+00                                 F               0         Blade 1 X translation displacement, node 23, m
        185    2.593E+01                                 F               0         Blade 1 Y translation displacement, node 23, m
        186   -1.960E+02                                 F               0         Blade 1 Z translation displacement, node 23, m
        187   -7.244E+00                                 F               0         Blade 1 X translation displacement, node 24, m
        188    2.720E+01                                 F               0         Blade 1 Y translation displacement, node 24, m
        189   -2.033E+02                                 F               0         Blade 1 Z translation displacement, node 24, m
        190   -8.505E+00                                 F               0         Blade 1 X translation displacement, node 25, m
        191    2.846E+01                                 F               0         Blade 1 Y translation displacement, node 25, m
        192   -2.107E+02                                 F               0         Blade 1 Z translation displacement, node 25, m
        193   -9.767E+00                                 F               0         Blade 1 X translation displacement, node 26, m
        194    2.973E+01                                 F               0         Blade 1 Y translation displacement, node 26, m
        195   -2.181E+02                                 F               0         Blade 1 Z translation displacement, node 26, m
        196   -1.103E+01                                 F               0         Blade 1 X translation displacement, node 27, m
        197    3.100E+01                                 F               0         Blade 1 Y translation displacement, node 27, m
        198   -2.255E+02                                 F               0         Blade 1 Z translation displacement, node 27, m
        199   -1.210E+01                                 F               0         Blade 1 X translation displacement, node 28, m
        200    3.208E+01                                 F               0         Blade 1 Y translation displacement, node 28, m
        201   -2.318E+02                                 F               0         Blade 1 Z translation displacement, node 28, m
        202    8.820E-01,  4.691E-01, -4.512E-02         F               0         Blade 1 X orientation angle, node 1, rad
        203    4.159E-01, -8.199E-01, -3.935E-01         F               0         Blade 1 Y orientation angle, node 1, rad
        204   -2.216E-01,  3.283E-01, -9.182E-01         F               0         Blade 1 Z orientation angle, node 1, rad
        205    8.820E-01,  4.691E-01, -4.512E-02         F               0         Blade 1 X orientation angle, node 2, rad
        206    4.159E-01, -8.199E-01, -3.935E-01         F               0         Blade 1 Y orientation angle, node 2, rad
        207   -2.216E-01,  3.283E-01, -9.182E-01         F               0         Blade 1 Z orientation angle, node 2, rad
        208    9.554E-01,  2.614E-01, -1.371E-01         F               0         Blade 1 X orientation angle, node 3, rad
        209    1.950E-01, -9.077E-01, -3.716E-01         F               0         Blade 1 Y orientation angle, node 3, rad
        210   -2.216E-01,  3.283E-01, -9.182E-01         F               0         Blade 1 Z orientation angle, node 3, rad
        211    9.628E-01,  2.228E-01, -1.527E-01         F               0         Blade 1 X orientation angle, node 4, rad
        212    1.545E-01, -9.179E-01, -3.654E-01         F               0         Blade 1 Y orientation angle, node 4, rad
        213   -2.216E-01,  3.283E-01, -9.182E-01         F               0         Blade 1 Z orientation angle, node 4, rad
        214    9.674E-01,  1.923E-01, -1.647E-01         F               0         Blade 1 X orientation angle, node 5, rad
        215    1.225E-01, -9.248E-01, -3.602E-01         F               0         Blade 1 Y orientation angle, node 5, rad
        216   -2.216E-01,  3.283E-01, -9.182E-01         F               0         Blade 1 Z orientation angle, node 5, rad
        217    9.703E-01,  1.677E-01, -1.742E-01         F               0         Blade 1 X orientation angle, node 6, rad
        218    9.678E-02, -9.296E-01, -3.557E-01         F               0         Blade 1 Y orientation angle, node 6, rad
        219   -2.216E-01,  3.283E-01, -9.182E-01         F               0         Blade 1 Z orientation angle, node 6, rad
        220    9.722E-01,  1.474E-01, -1.819E-01         F               0         Blade 1 X orientation angle, node 7, rad
        221    7.559E-02, -9.330E-01, -3.518E-01         F               0         Blade 1 Y orientation angle, node 7, rad
        222   -2.216E-01,  3.283E-01, -9.182E-01         F               0         Blade 1 Z orientation angle, node 7, rad
        223    9.734E-01,  1.304E-01, -1.883E-01         F               0         Blade 1 X orientation angle, node 8, rad
        224    5.793E-02, -9.355E-01, -3.484E-01         F               0         Blade 1 Y orientation angle, node 8, rad
        225   -2.216E-01,  3.283E-01, -9.182E-01         F               0         Blade 1 Z orientation angle, node 8, rad
        226    9.742E-01,  1.160E-01, -1.936E-01         F               0         Blade 1 X orientation angle, node 9, rad
        227    4.297E-02, -9.374E-01, -3.455E-01         F               0         Blade 1 Y orientation angle, node 9, rad