
Linearized model: Predictions were generated on 12-Jan-2024 at 09:28:28 using OpenFAST, compiled as a 64-bit application using single precision at commit v3.5.1
 linked with  NWTC Subroutine Library; ElastoDyn; InflowWind; AeroDyn; ServoDyn; HydroDyn; MAP++ (<1.20.10>, <Oct-20-2023>)

Description from the FAST input file: CCT-9 Campign 4 model. Input files to be run with OpenFAST 3.5.0. GitHub branch from Lu Wang (https://github.com/luwang00/openfast/tree/dev) compiled on March 7, 2023.

Simulation information:
   Simulation time:                   508.1500 s
   Rotor Speed:                         0.8781 rad/s
   Azimuth:                             4.7235 rad
   Wind Speed:                         10.0000 m/s
   Number of continuous states:         0
   Number of discrete states:           0
   Number of constraint states:         0
   Number of inputs:                  303
   Number of outputs:                   1
   Jacobians included in this file?    No

Order of inputs:
     Column   Operating Point                     Rotating Frame? Derivative Order Description
   ---------- ---------------                     --------------- ---------------- -----------
          1   -1.080E+01                                 F               0         X-component position of node 1 (hub), m
          2    0.000E+00                                 F               0         Y-component position of node 1 (hub), m
          3    1.497E+02                                 F               0         Z-component position of node 1 (hub), m
          4    1.658E+01                                 F               0         X-component position of node 2 (blade 1, node 1), m
          5   -2.067E+00                                 F               0         Y-component position of node 2 (blade 1, node 1), m
          6    1.500E+02                                 F               0         Z-component position of node 2 (blade 1, node 1), m
          7    1.658E+01                                 F               0         X-component position of node 3 (blade 1, node 2), m
          8   -7.347E-01                                 F               0         Y-component position of node 3 (blade 1, node 2), m
          9    1.500E+02                                 F               0         Z-component position of node 3 (blade 1, node 2), m
         10    1.655E+01                                 F               0         X-component position of node 4 (blade 1, node 3), m
         11    1.738E+01                                 F               0         Y-component position of node 4 (blade 1, node 3), m
         12    1.511E+02                                 F               0         Z-component position of node 4 (blade 1, node 3), m
         13    1.654E+01                                 F               0         X-component position of node 5 (blade 1, node 4), m
         14    2.125E+01                                 F               0         Y-component position of node 5 (blade 1, node 4), m
         15    1.514E+02                                 F               0         Z-component position of node 5 (blade 1, node 4), m
         16    1.653E+01                                 F               0         X-component position of node 6 (blade 1, node 5), m
         17    2.511E+01                                 F               0         Y-component position of node 6 (blade 1, node 5), m
         18    1.516E+02                                 F               0         Z-component position of node 6 (blade 1, node 5), m
         19    1.652E+01                                 F               0         X-component position of node 7 (blade 1, node 6), m
         20    2.897E+01                                 F               0         Y-component position of node 7 (blade 1, node 6), m
         21    1.518E+02                                 F               0         Z-component position of node 7 (blade 1, node 6), m
         22    1.652E+01                                 F               0         X-component position of node 8 (blade 1, node 7), m
         23    3.283E+01                                 F               0         Y-component position of node 8 (blade 1, node 7), m
         24    1.521E+02                                 F               0         Z-component position of node 8 (blade 1, node 7), m
         25    1.651E+01                                 F               0         X-component position of node 9 (blade 1, node 8), m
         26    3.669E+01                                 F               0         Y-component position of node 9 (blade 1, node 8), m
         27    1.523E+02                                 F               0         Z-component position of node 9 (blade 1, node 8), m
         28    1.650E+01                                 F               0         X-component position of node 10 (blade 1, node 9), m
         29    4.055E+01                                 F               0         Y-component position of node 10 (blade 1, node 9), m
         30    1.525E+02                                 F               0         Z-component position of node 10 (blade 1, node 9), m
         31    1.649E+01                                 F               0         X-component position of node 11 (blade 1, node 10), m
         32    4.441E+01                                 F               0         Y-component position of node 11 (blade 1, node 10), m
         33    1.528E+02                                 F               0         Z-component position of node 11 (blade 1, node 10), m
         34    1.649E+01                                 F               0         X-component position of node 12 (blade 1, node 11), m
         35    4.827E+01                                 F               0         Y-component position of node 12 (blade 1, node 11), m
         36    1.530E+02                                 F               0         Z-component position of node 12 (blade 1, node 11), m
         37    1.648E+01                                 F               0         X-component position of node 13 (blade 1, node 12), m
         38    5.213E+01                                 F               0         Y-component position of node 13 (blade 1, node 12), m
         39    1.532E+02                                 F               0         Z-component position of node 13 (blade 1, node 12), m
         40    1.647E+01                                 F               0         X-component position of node 14 (blade 1, node 13), m
         41    5.599E+01                                 F               0         Y-component position of node 14 (blade 1, node 13), m
         42    1.535E+02                                 F               0         Z-component position of node 14 (blade 1, node 13), m
         43    1.646E+01                                 F               0         X-component position of node 15 (blade 1, node 14), m
         44    5.985E+01                                 F               0         Y-component position of node 15 (blade 1, node 14), m
         45    1.537E+02                                 F               0         Z-component position of node 15 (blade 1, node 14), m
         46    1.646E+01                                 F               0         X-component position of node 16 (blade 1, node 15), m
         47    6.371E+01                                 F               0         Y-component position of node 16 (blade 1, node 15), m
         48    1.539E+02                                 F               0         Z-component position of node 16 (blade 1, node 15), m
         49    1.645E+01                                 F               0         X-component position of node 17 (blade 1, node 16), m
         50    6.757E+01                                 F               0         Y-component position of node 17 (blade 1, node 16), m
         51    1.542E+02                                 F               0         Z-component position of node 17 (blade 1, node 16), m
         52    1.644E+01                                 F               0         X-component position of node 18 (blade 1, node 17), m
         53    7.143E+01                                 F               0         Y-component position of node 18 (blade 1, node 17), m
         54    1.544E+02                                 F               0         Z-component position of node 18 (blade 1, node 17), m
         55    1.644E+01                                 F               0         X-component position of node 19 (blade 1, node 18), m
         56    7.529E+01                                 F               0         Y-component position of node 19 (blade 1, node 18), m
         57    1.546E+02                                 F               0         Z-component position of node 19 (blade 1, node 18), m
         58    1.643E+01                                 F               0         X-component position of node 20 (blade 1, node 19), m
         59    7.916E+01                                 F               0         Y-component position of node 20 (blade 1, node 19), m
         60    1.549E+02                                 F               0         Z-component position of node 20 (blade 1, node 19), m
         61    1.642E+01                                 F               0         X-component position of node 21 (blade 1, node 20), m
         62    8.302E+01                                 F               0         Y-component position of node 21 (blade 1, node 20), m
         63    1.551E+02                                 F               0         Z-component position of node 21 (blade 1, node 20), m
         64    1.641E+01                                 F               0         X-component position of node 22 (blade 1, node 21), m
         65    8.688E+01                                 F               0         Y-component position of node 22 (blade 1, node 21), m
         66    1.553E+02                                 F               0         Z-component position of node 22 (blade 1, node 21), m
         67    1.641E+01                                 F               0         X-component position of node 23 (blade 1, node 22), m
         68    9.074E+01                                 F               0         Y-component position of node 23 (blade 1, node 22), m
         69    1.556E+02                                 F               0         Z-component position of node 23 (blade 1, node 22), m
         70    1.640E+01                                 F               0         X-component position of node 24 (blade 1, node 23), m
         71    9.460E+01                                 F               0         Y-component position of node 24 (blade 1, node 23), m
         72    1.558E+02                                 F               0         Z-component position of node 24 (blade 1, node 23), m
         73    1.639E+01                                 F               0         X-component position of node 25 (blade 1, node 24), m
         74    9.846E+01                                 F               0         Y-component position of node 25 (blade 1, node 24), m
         75    1.560E+02                                 F               0         Z-component position of node 25 (blade 1, node 24), m
         76    1.638E+01                                 F               0         X-component position of node 26 (blade 1, node 25), m
         77    1.023E+02                                 F               0         Y-component position of node 26 (blade 1, node 25), m
         78    1.563E+02                                 F               0         Z-component position of node 26 (blade 1, node 25), m
         79    1.638E+01                                 F               0         X-component position of node 27 (blade 1, node 26), m
         80    1.062E+02                                 F               0         Y-component position of node 27 (blade 1, node 26), m
         81    1.565E+02                                 F               0         Z-component position of node 27 (blade 1, node 26), m
         82    1.637E+01                                 F               0         X-component position of node 28 (blade 1, node 27), m
         83    1.100E+02                                 F               0         Y-component position of node 28 (blade 1, node 27), m
         84    1.567E+02                                 F               0         Z-component position of node 28 (blade 1, node 27), m
         85    1.636E+01                                 F               0         X-component position of node 29 (blade 1, node 28), m
         86    1.133E+02                                 F               0         Y-component position of node 29 (blade 1, node 28), m
         87    1.569E+02                                 F               0         Z-component position of node 29 (blade 1, node 28), m
         88    1.770E+01                                 F               0         X-component position of node 30 (blade 2, node 1), m
         89   -1.064E+01                                 F               0         Y-component position of node 30 (blade 2, node 1), m
         90    1.541E+02                                 F               0         Z-component position of node 30 (blade 2, node 1), m
         91    1.797E+01                                 F               0         X-component position of node 31 (blade 2, node 2), m
         92   -1.137E+01                                 F               0         Y-component position of node 31 (blade 2, node 2), m
         93    1.552E+02                                 F               0         Z-component position of node 31 (blade 2, node 2), m
         94    2.160E+01                                 F               0         X-component position of node 32 (blade 2, node 3), m
         95   -2.135E+01                                 F               0         Y-component position of node 32 (blade 2, node 3), m
         96    1.699E+02                                 F               0         Z-component position of node 32 (blade 2, node 3), m
         97    2.237E+01                                 F               0         X-component position of node 33 (blade 2, node 4), m
         98   -2.347E+01                                 F               0         Y-component position of node 33 (blade 2, node 4), m
         99    1.731E+02                                 F               0         Z-component position of node 33 (blade 2, node 4), m
        100    2.315E+01                                 F               0         X-component position of node 34 (blade 2, node 5), m
        101   -2.560E+01                                 F               0         Y-component position of node 34 (blade 2, node 5), m
        102    1.762E+02                                 F               0         Z-component position of node 34 (blade 2, node 5), m
        103    2.392E+01                                 F               0         X-component position of node 35 (blade 2, node 6), m
        104   -2.772E+01                                 F               0         Y-component position of node 35 (blade 2, node 6), m
        105    1.793E+02                                 F               0         Z-component position of node 35 (blade 2, node 6), m
        106    2.469E+01                                 F               0         X-component position of node 36 (blade 2, node 7), m
        107   -2.985E+01                                 F               0         Y-component position of node 36 (blade 2, node 7), m
        108    1.825E+02                                 F               0         Z-component position of node 36 (blade 2, node 7), m
        109    2.547E+01                                 F               0         X-component position of node 37 (blade 2, node 8), m
        110   -3.197E+01                                 F               0         Y-component position of node 37 (blade 2, node 8), m
        111    1.856E+02                                 F               0         Z-component position of node 37 (blade 2, node 8), m
        112    2.624E+01                                 F               0         X-component position of node 38 (blade 2, node 9), m
        113   -3.410E+01                                 F               0         Y-component position of node 38 (blade 2, node 9), m
        114    1.888E+02                                 F               0         Z-component position of node 38 (blade 2, node 9), m
        115    2.701E+01                                 F               0         X-component position of node 39 (blade 2, node 10), m
        116   -3.622E+01                                 F               0         Y-component position of node 39 (blade 2, node 10), m
        117    1.919E+02                                 F               0         Z-component position of node 39 (blade 2, node 10), m
        118    2.779E+01                                 F               0         X-component position of node 40 (blade 2, node 11), m
        119   -3.835E+01                                 F               0         Y-component position of node 40 (blade 2, node 11), m
        120    1.950E+02                                 F               0         Z-component position of node 40 (blade 2, node 11), m
        121    2.856E+01                                 F               0         X-component position of node 41 (blade 2, node 12), m
        122   -4.047E+01                                 F               0         Y-component position of node 41 (blade 2, node 12), m
        123    1.982E+02                                 F               0         Z-component position of node 41 (blade 2, node 12), m
        124    2.933E+01                                 F               0         X-component position of node 42 (blade 2, node 13), m
        125   -4.260E+01                                 F               0         Y-component position of node 42 (blade 2, node 13), m
        126    2.013E+02                                 F               0         Z-component position of node 42 (blade 2, node 13), m
        127    3.011E+01                                 F               0         X-component position of node 43 (blade 2, node 14), m
        128   -4.472E+01                                 F               0         Y-component position of node 43 (blade 2, node 14), m
        129    2.044E+02                                 F               0         Z-component position of node 43 (blade 2, node 14), m
        130    3.088E+01                                 F               0         X-component position of node 44 (blade 2, node 15), m
        131   -4.685E+01                                 F               0         Y-component position of node 44 (blade 2, node 15), m
        132    2.076E+02                                 F               0         Z-component position of node 44 (blade 2, node 15), m
        133    3.165E+01                                 F               0         X-component position of node 45 (blade 2, node 16), m
        134   -4.897E+01                                 F               0         Y-component position of node 45 (blade 2, node 16), m
        135    2.107E+02                                 F               0         Z-component position of node 45 (blade 2, node 16), m
        136    3.243E+01                                 F               0         X-component position of node 46 (blade 2, node 17), m
        137   -5.110E+01                                 F               0         Y-component position of node 46 (blade 2, node 17), m
        138    2.139E+02                                 F               0         Z-component position of node 46 (blade 2, node 17), m
        139    3.320E+01                                 F               0         X-component position of node 47 (blade 2, node 18), m
        140   -5.322E+01                                 F               0         Y-component position of node 47 (blade 2, node 18), m
        141    2.170E+02                                 F               0         Z-component position of node 47 (blade 2, node 18), m
        142    3.397E+01                                 F               0         X-component position of node 48 (blade 2, node 19), m
        143   -5.535E+01                                 F               0         Y-component position of node 48 (blade 2, node 19), m
        144    2.201E+02                                 F               0         Z-component position of node 48 (blade 2, node 19), m
        145    3.475E+01                                 F               0         X-component position of node 49 (blade 2, node 20), m
        146   -5.747E+01                                 F               0         Y-component position of node 49 (blade 2, node 20), m
        147    2.233E+02                                 F               0         Z-component position of node 49 (blade 2, node 20), m
        148    3.552E+01                                 F               0         X-component position of node 50 (blade 2, node 21), m
        149   -5.960E+01                                 F               0         Y-component position of node 50 (blade 2, node 21), m
        150    2.264E+02                                 F               0         Z-component position of node 50 (blade 2, node 21), m
        151    3.629E+01                                 F               0         X-component position of node 51 (blade 2, node 22), m
        152   -6.172E+01                                 F               0         Y-component position of node 51 (blade 2, node 22), m
        153    2.295E+02                                 F               0         Z-component position of node 51 (blade 2, node 22), m
        154    3.707E+01                                 F               0         X-component position of node 52 (blade 2, node 23), m
        155   -6.385E+01                                 F               0         Y-component position of node 52 (blade 2, node 23), m
        156    2.327E+02                                 F               0         Z-component position of node 52 (blade 2, node 23), m
        157    3.784E+01                                 F               0         X-component position of node 53 (blade 2, node 24), m
        158   -6.597E+01                                 F               0         Y-component position of node 53 (blade 2, node 24), m
        159    2.358E+02                                 F               0         Z-component position of node 53 (blade 2, node 24), m
        160    3.861E+01                                 F               0         X-component position of node 54 (blade 2, node 25), m
        161   -6.810E+01                                 F               0         Y-component position of node 54 (blade 2, node 25), m
        162    2.390E+02                                 F               0         Z-component position of node 54 (blade 2, node 25), m
        163    3.939E+01                                 F               0         X-component position of node 55 (blade 2, node 26), m
        164   -7.023E+01                                 F               0         Y-component position of node 55 (blade 2, node 26), m
        165    2.421E+02                                 F               0         Z-component position of node 55 (blade 2, node 26), m
        166    4.016E+01                                 F               0         X-component position of node 56 (blade 2, node 27), m
        167   -7.235E+01                                 F               0         Y-component position of node 56 (blade 2, node 27), m
        168    2.452E+02                                 F               0         Z-component position of node 56 (blade 2, node 27), m
        169    4.082E+01                                 F               0         X-component position of node 57 (blade 2, node 28), m
        170   -7.415E+01                                 F               0         Y-component position of node 57 (blade 2, node 28), m
        171    2.479E+02                                 F               0         Z-component position of node 57 (blade 2, node 28), m
        172    1.550E+01                                 F               0         X-component position of node 58 (blade 3, node 1), m
        173   -1.008E+01                                 F               0         Y-component position of node 58 (blade 3, node 1), m
        174    1.448E+02                                 F               0         Z-component position of node 58 (blade 3, node 1), m
        175    1.523E+01                                 F               0         X-component position of node 59 (blade 3, node 2), m
        176   -1.068E+01                                 F               0         Y-component position of node 59 (blade 3, node 2), m
        177    1.436E+02                                 F               0         Z-component position of node 59 (blade 3, node 2), m
        178    1.164E+01                                 F               0         X-component position of node 60 (blade 3, node 3), m
        179   -1.883E+01                                 F               0         Y-component position of node 60 (blade 3, node 3), m
        180    1.278E+02                                 F               0         Z-component position of node 60 (blade 3, node 3), m
        181    1.087E+01                                 F               0         X-component position of node 61 (blade 3, node 4), m
        182   -2.056E+01                                 F               0         Y-component position of node 61 (blade 3, node 4), m
        183    1.245E+02                                 F               0         Z-component position of node 61 (blade 3, node 4), m
        184    1.011E+01                                 F               0         X-component position of node 62 (blade 3, node 5), m
        185   -2.230E+01                                 F               0         Y-component position of node 62 (blade 3, node 5), m
        186    1.211E+02                                 F               0         Z-component position of node 62 (blade 3, node 5), m
        187    9.339E+00                                 F               0         X-component position of node 63 (blade 3, node 6), m
        188   -2.403E+01                                 F               0         Y-component position of node 63 (blade 3, node 6), m
        189    1.177E+02                                 F               0         Z-component position of node 63 (blade 3, node 6), m
        190    8.573E+00                                 F               0         X-component position of node 64 (blade 3, node 7), m
        191   -2.577E+01                                 F               0         Y-component position of node 64 (blade 3, node 7), m
        192    1.143E+02                                 F               0         Z-component position of node 64 (blade 3, node 7), m
        193    7.807E+00                                 F               0         X-component position of node 65 (blade 3, node 8), m
        194   -2.751E+01                                 F               0         Y-component position of node 65 (blade 3, node 8), m
        195    1.110E+02                                 F               0         Z-component position of node 65 (blade 3, node 8), m
        196    7.041E+00                                 F               0         X-component position of node 66 (blade 3, node 9), m
        197   -2.924E+01                                 F               0         Y-component position of node 66 (blade 3, node 9), m
        198    1.076E+02                                 F               0         Z-component position of node 66 (blade 3, node 9), m
        199    6.275E+00                                 F               0         X-component position of node 67 (blade 3, node 10), m
        200   -3.098E+01                                 F               0         Y-component position of node 67 (blade 3, node 10), m
        201    1.042E+02                                 F               0         Z-component position of node 67 (blade 3, node 10), m
        202    5.509E+00                                 F               0         X-component position of node 68 (blade 3, node 11), m
        203   -3.271E+01                                 F               0         Y-component position of node 68 (blade 3, node 11), m
        204    1.009E+02                                 F               0         Z-component position of node 68 (blade 3, node 11), m
        205    4.743E+00                                 F               0         X-component position of node 69 (blade 3, node 12), m
        206   -3.445E+01                                 F               0         Y-component position of node 69 (blade 3, node 12), m
        207    9.749E+01                                 F               0         Z-component position of node 69 (blade 3, node 12), m
        208    3.977E+00                                 F               0         X-component position of node 70 (blade 3, node 13), m
        209   -3.618E+01                                 F               0         Y-component position of node 70 (blade 3, node 13), m
        210    9.412E+01                                 F               0         Z-component position of node 70 (blade 3, node 13), m
        211    3.211E+00                                 F               0         X-component position of node 71 (blade 3, node 14), m