
Linearized model: Predictions were generated on 13-Feb-2024 at 12:12:09 using OpenFAST, compiled as a 64-bit application using single precision at commit v3.5.1
 linked with  NWTC Subroutine Library; ElastoDyn; InflowWind; AeroDyn; ServoDyn; HydroDyn; MAP++ (<1.20.10>, <Oct-20-2023>)

Description from the FAST input file: CCT-9 Campign 4 model. Input files to be run with OpenFAST 3.5.0. GitHub branch from Lu Wang (https://github.com/luwang00/openfast/tree/dev) compiled on March 7, 2023.

Simulation information:
   Simulation time:                   774.4250 s
   Rotor Speed:                         0.7923 rad/s
   Azimuth:                             3.1592 rad
   Wind Speed:                         24.0000 m/s
   Number of continuous states:         0
   Number of discrete states:           0
   Number of constraint states:         0
   Number of inputs:                  303
   Number of outputs:                   1
   Jacobians included in this file?    No

Order of inputs:
     Column   Operating Point                                                   Rotating Frame? Derivative Order Description
   ---------- ---------------                                                   --------------- ---------------- -----------
          1    -1.08005075455E+001                                                     F               0         X-component position of node 1 (hub), m
          2     0.00000000000E+000                                                     F               0         Y-component position of node 1 (hub), m
          3     1.49740173340E+002                                                     F               0         Z-component position of node 1 (hub), m
          4     9.67220211029E+000                                                     F               0         X-component position of node 2 (blade 1, node 1), m
          5    -8.79355049133E+000                                                     F               0         Y-component position of node 2 (blade 1, node 1), m
          6     1.44351196289E+002                                                     F               0         Z-component position of node 2 (blade 1, node 1), m
          7     9.40024089813E+000                                                     F               0         X-component position of node 3 (blade 1, node 2), m
          8    -8.69239521027E+000                                                     F               0         Y-component position of node 3 (blade 1, node 2), m
          9     1.43048202515E+002                                                     F               0         Z-component position of node 3 (blade 1, node 2), m
         10     5.70204687119E+000                                                     F               0         X-component position of node 4 (blade 1, node 3), m
         11    -7.31685161591E+000                                                     F               0         Y-component position of node 4 (blade 1, node 3), m
         12     1.25329818726E+002                                                     F               0         Z-component position of node 4 (blade 1, node 3), m
         13     4.91412639618E+000                                                     F               0         X-component position of node 5 (blade 1, node 4), m
         14    -7.02378368378E+000                                                     F               0         Y-component position of node 5 (blade 1, node 4), m
         15     1.21554817200E+002                                                     F               0         Z-component position of node 5 (blade 1, node 4), m
         16     4.12605333328E+000                                                     F               0         X-component position of node 6 (blade 1, node 5), m
         17    -6.73066091537E+000                                                     F               0         Y-component position of node 6 (blade 1, node 5), m
         18     1.17779090881E+002                                                     F               0         Z-component position of node 6 (blade 1, node 5), m
         19     3.33812880516E+000                                                     F               0         X-component position of node 7 (blade 1, node 6), m
         20    -6.43759155273E+000                                                     F               0         Y-component position of node 7 (blade 1, node 6), m
         21     1.14004066467E+002                                                     F               0         Z-component position of node 7 (blade 1, node 6), m
         22     2.55020070076E+000                                                     F               0         X-component position of node 8 (blade 1, node 7), m
         23    -6.14452219009E+000                                                     F               0         Y-component position of node 8 (blade 1, node 7), m
         24     1.10229034424E+002                                                     F               0         Z-component position of node 8 (blade 1, node 7), m
         25     1.76213169098E+000                                                     F               0         X-component position of node 9 (blade 1, node 8), m
         26    -5.85139989853E+000                                                     F               0         Y-component position of node 9 (blade 1, node 8), m
         27     1.06453323364E+002                                                     F               0         Z-component position of node 9 (blade 1, node 8), m
         28     9.74202871323E-001                                                     F               0         X-component position of node 10 (blade 1, node 9), m
         29    -5.55833005905E+000                                                     F               0         Y-component position of node 10 (blade 1, node 9), m
         30     1.02678291321E+002                                                     F               0         Z-component position of node 10 (blade 1, node 9), m
         31     1.86278194189E-001                                                     F               0         X-component position of node 11 (blade 1, node 10), m
         32    -5.26526117325E+000                                                     F               0         Y-component position of node 11 (blade 1, node 10), m
         33     9.89032669067E+001                                                     F               0         Z-component position of node 11 (blade 1, node 10), m
         34    -6.01650893688E-001                                                     F               0         X-component position of node 12 (blade 1, node 11), m
         35    -4.97219133377E+000                                                     F               0         Y-component position of node 12 (blade 1, node 11), m
         36     9.51282348633E+001                                                     F               0         Z-component position of node 12 (blade 1, node 11), m
         37    -1.38971436024E+000                                                     F               0         X-component position of node 13 (blade 1, node 12), m
         38    -4.67906951904E+000                                                     F               0         Y-component position of node 13 (blade 1, node 12), m
         39     9.13525390625E+001                                                     F               0         Z-component position of node 13 (blade 1, node 12), m
         40    -2.17764377594E+000                                                     F               0         X-component position of node 14 (blade 1, node 13), m
         41    -4.38600015640E+000                                                     F               0         Y-component position of node 14 (blade 1, node 13), m
         42     8.75774993896E+001                                                     F               0         Z-component position of node 14 (blade 1, node 13), m
         43    -2.96556830406E+000                                                     F               0         X-component position of node 15 (blade 1, node 14), m
         44    -4.09293127060E+000                                                     F               0         Y-component position of node 15 (blade 1, node 14), m
         45     8.38024826050E+001                                                     F               0         Z-component position of node 15 (blade 1, node 14), m
         46    -3.75363969803E+000                                                     F               0         X-component position of node 16 (blade 1, node 15), m
         47    -3.79980826378E+000                                                     F               0         Y-component position of node 16 (blade 1, node 15), m
         48     8.00267639160E+001                                                     F               0         Z-component position of node 16 (blade 1, node 15), m
         49    -4.54156494141E+000                                                     F               0         X-component position of node 17 (blade 1, node 16), m
         50    -3.50673913956E+000                                                     F               0         Y-component position of node 17 (blade 1, node 16), m
         51     7.62517395020E+001                                                     F               0         Z-component position of node 17 (blade 1, node 16), m
         52    -5.32949447632E+000                                                     F               0         X-component position of node 18 (blade 1, node 17), m
         53    -3.21366930008E+000                                                     F               0         Y-component position of node 18 (blade 1, node 17), m
         54     7.24766921997E+001                                                     F               0         Z-component position of node 18 (blade 1, node 17), m
         55    -6.11742019653E+000                                                     F               0         X-component position of node 19 (blade 1, node 18), m
         56    -2.92060041428E+000                                                     F               0         Y-component position of node 19 (blade 1, node 18), m
         57     6.87016677856E+001                                                     F               0         Z-component position of node 19 (blade 1, node 18), m
         58    -6.90548515320E+000                                                     F               0         X-component position of node 20 (blade 1, node 19), m
         59    -2.62747859955E+000                                                     F               0         Y-component position of node 20 (blade 1, node 19), m
         60     6.49259796143E+001                                                     F               0         Z-component position of node 20 (blade 1, node 19), m
         61    -7.69341468811E+000                                                     F               0         X-component position of node 21 (blade 1, node 20), m
         62    -2.33440876007E+000                                                     F               0         Y-component position of node 21 (blade 1, node 20), m
         63     6.11509437561E+001                                                     F               0         Z-component position of node 21 (blade 1, node 20), m
         64    -8.48134040833E+000                                                     F               0         X-component position of node 22 (blade 1, node 21), m
         65    -2.04133987427E+000                                                     F               0         Y-component position of node 22 (blade 1, node 21), m
         66     5.73759078979E+001                                                     F               0         Z-component position of node 22 (blade 1, node 21), m
         67    -9.26940917969E+000                                                     F               0         X-component position of node 23 (blade 1, node 22), m
         68    -1.74821722507E+000                                                     F               0         Y-component position of node 23 (blade 1, node 22), m
         69     5.36002006531E+001                                                     F               0         Z-component position of node 23 (blade 1, node 22), m
         70    -1.00573387146E+001                                                     F               0         X-component position of node 24 (blade 1, node 23), m
         71    -1.45514738560E+000                                                     F               0         Y-component position of node 24 (blade 1, node 23), m
         72     4.98251686096E+001                                                     F               0         Z-component position of node 24 (blade 1, node 23), m
         73    -1.08452644348E+001                                                     F               0         X-component position of node 25 (blade 1, node 24), m
         74    -1.16207826138E+000                                                     F               0         Y-component position of node 25 (blade 1, node 24), m
         75     4.60501403809E+001                                                     F               0         Z-component position of node 25 (blade 1, node 24), m
         76    -1.16331901550E+001                                                     F               0         X-component position of node 26 (blade 1, node 25), m
         77    -8.69009196758E-001                                                     F               0         Y-component position of node 26 (blade 1, node 25), m
         78     4.22751159668E+001                                                     F               0         Z-component position of node 26 (blade 1, node 25), m
         79    -1.24212589264E+001                                                     F               0         X-component position of node 27 (blade 1, node 26), m
         80    -5.75886726379E-001                                                     F               0         Y-component position of node 27 (blade 1, node 26), m
         81     3.84994010925E+001                                                     F               0         Z-component position of node 27 (blade 1, node 26), m
         82    -1.32091836929E+001                                                     F               0         X-component position of node 28 (blade 1, node 27), m
         83    -2.82817572355E-001                                                     F               0         Y-component position of node 28 (blade 1, node 27), m
         84     3.47243881226E+001                                                     F               0         Z-component position of node 28 (blade 1, node 27), m
         85    -1.38771791458E+001                                                     F               0         X-component position of node 29 (blade 1, node 28), m
         86    -3.43577824533E-002                                                     F               0         Y-component position of node 29 (blade 1, node 28), m
         87     3.15239620209E+001                                                     F               0         Z-component position of node 29 (blade 1, node 28), m
         88     1.14406700134E+001                                                     F               0         X-component position of node 30 (blade 2, node 1), m
         89    -4.63927555084E+000                                                     F               0         Y-component position of node 30 (blade 2, node 1), m
         90     1.52818145752E+002                                                     F               0         Z-component position of node 30 (blade 2, node 1), m
         91     1.15948333740E+001                                                     F               0         X-component position of node 31 (blade 2, node 2), m
         92    -3.53711986542E+000                                                     F               0         Y-component position of node 31 (blade 2, node 2), m
         93     1.53555328369E+002                                                     F               0         Z-component position of node 31 (blade 2, node 2), m
         94     1.36912145615E+001                                                     F               0         X-component position of node 32 (blade 2, node 3), m
         95     1.14503469467E+001                                                     F               0         Y-component position of node 32 (blade 2, node 3), m
         96     1.63579849243E+002                                                     F               0         Z-component position of node 32 (blade 2, node 3), m
         97     1.41378631592E+001                                                     F               0         X-component position of node 33 (blade 2, node 4), m
         98     1.46435346603E+001                                                     F               0         Y-component position of node 33 (blade 2, node 4), m
         99     1.65715637207E+002                                                     F               0         Z-component position of node 33 (blade 2, node 4), m
        100     1.45845928192E+001                                                     F               0         X-component position of node 34 (blade 2, node 5), m
        101     1.78373031616E+001                                                     F               0         Y-component position of node 34 (blade 2, node 5), m
        102     1.67851806641E+002                                                     F               0         Z-component position of node 34 (blade 2, node 5), m
        103     1.50312423706E+001                                                     F               0         X-component position of node 35 (blade 2, node 6), m
        104     2.10304889679E+001                                                     F               0         Y-component position of node 35 (blade 2, node 6), m
        105     1.69987609863E+002                                                     F               0         Z-component position of node 35 (blade 2, node 6), m
        106     1.54778909683E+001                                                     F               0         X-component position of node 36 (blade 2, node 7), m
        107     2.42236785889E+001                                                     F               0         Y-component position of node 36 (blade 2, node 7), m
        108     1.72123397827E+002                                                     F               0         Z-component position of node 36 (blade 2, node 7), m
        109     1.59246206284E+001                                                     F               0         X-component position of node 37 (blade 2, node 8), m
        110     2.74174442291E+001                                                     F               0         Y-component position of node 37 (blade 2, node 8), m
        111     1.74259567261E+002                                                     F               0         Z-component position of node 37 (blade 2, node 8), m
        112     1.63712692261E+001                                                     F               0         X-component position of node 38 (blade 2, node 9), m
        113     3.06106319427E+001                                                     F               0         Y-component position of node 38 (blade 2, node 9), m
        114     1.76395370483E+002                                                     F               0         Z-component position of node 38 (blade 2, node 9), m
        115     1.68179187775E+001                                                     F               0         X-component position of node 39 (blade 2, node 10), m
        116     3.38038177490E+001                                                     F               0         Y-component position of node 39 (blade 2, node 10), m
        117     1.78531158447E+002                                                     F               0         Z-component position of node 39 (blade 2, node 10), m
        118     1.72645683289E+001                                                     F               0         X-component position of node 40 (blade 2, node 11), m
        119     3.69970092773E+001                                                     F               0         Y-component position of node 40 (blade 2, node 11), m
        120     1.80666961670E+002                                                     F               0         Z-component position of node 40 (blade 2, node 11), m
        121     1.77112979889E+001                                                     F               0         X-component position of node 41 (blade 2, node 12), m
        122     4.01907806396E+001                                                     F               0         Y-component position of node 41 (blade 2, node 12), m
        123     1.82803131104E+002                                                     F               0         Z-component position of node 41 (blade 2, node 12), m
        124     1.81579456329E+001                                                     F               0         X-component position of node 42 (blade 2, node 13), m
        125     4.33839645386E+001                                                     F               0         Y-component position of node 42 (blade 2, node 13), m
        126     1.84938919067E+002                                                     F               0         Z-component position of node 42 (blade 2, node 13), m
        127     1.86045970917E+001                                                     F               0         X-component position of node 43 (blade 2, node 14), m
        128     4.65771560669E+001                                                     F               0         Y-component position of node 43 (blade 2, node 14), m
        129     1.87074707031E+002                                                     F               0         Z-component position of node 43 (blade 2, node 14), m
        130     1.90513248444E+001                                                     F               0         X-component position of node 44 (blade 2, node 15), m
        131     4.97709236145E+001                                                     F               0         Y-component position of node 44 (blade 2, node 15), m
        132     1.89210891724E+002                                                     F               0         Z-component position of node 44 (blade 2, node 15), m
        133     1.94979743958E+001                                                     F               0         X-component position of node 45 (blade 2, node 16), m
        134     5.29641036987E+001                                                     F               0         Y-component position of node 45 (blade 2, node 16), m
        135     1.91346694946E+002                                                     F               0         Z-component position of node 45 (blade 2, node 16), m
        136     1.99446220398E+001                                                     F               0         X-component position of node 46 (blade 2, node 17), m
        137     5.61572914124E+001                                                     F               0         Y-component position of node 46 (blade 2, node 17), m
        138     1.93482482910E+002                                                     F               0         Z-component position of node 46 (blade 2, node 17), m
        139     2.03912715912E+001                                                     F               0         X-component position of node 47 (blade 2, node 18), m
        140     5.93504791260E+001                                                     F               0         Y-component position of node 47 (blade 2, node 18), m
        141     1.95618270874E+002                                                     F               0         Z-component position of node 47 (blade 2, node 18), m
        142     2.08380012512E+001                                                     F               0         X-component position of node 48 (blade 2, node 19), m
        143     6.25442466736E+001                                                     F               0         Y-component position of node 48 (blade 2, node 19), m
        144     1.97754440308E+002                                                     F               0         Z-component position of node 48 (blade 2, node 19), m
        145     2.12846508026E+001                                                     F               0         X-component position of node 49 (blade 2, node 20), m
        146     6.57374343872E+001                                                     F               0         Y-component position of node 49 (blade 2, node 20), m
        147     1.99890243530E+002                                                     F               0         Z-component position of node 49 (blade 2, node 20), m
        148     2.17313003540E+001                                                     F               0         X-component position of node 50 (blade 2, node 21), m
        149     6.89306335449E+001                                                     F               0         Y-component position of node 50 (blade 2, node 21), m
        150     2.02026031494E+002                                                     F               0         Z-component position of node 50 (blade 2, node 21), m
        151     2.21780300140E+001                                                     F               0         X-component position of node 51 (blade 2, node 22), m
        152     7.21243972778E+001                                                     F               0         Y-component position of node 51 (blade 2, node 22), m
        153     2.04162216187E+002                                                     F               0         Z-component position of node 51 (blade 2, node 22), m
        154     2.26246795654E+001                                                     F               0         X-component position of node 52 (blade 2, node 23), m
        155     7.53175811768E+001                                                     F               0         Y-component position of node 52 (blade 2, node 23), m
        156     2.06298004150E+002                                                     F               0         Z-component position of node 52 (blade 2, node 23), m
        157     2.30713272095E+001                                                     F               0         X-component position of node 53 (blade 2, node 24), m
        158     7.85107727051E+001                                                     F               0         Y-component position of node 53 (blade 2, node 24), m
        159     2.08433792114E+002                                                     F               0         Z-component position of node 53 (blade 2, node 24), m
        160     2.35179748535E+001                                                     F               0         X-component position of node 54 (blade 2, node 25), m
        161     8.17039566040E+001                                                     F               0         Y-component position of node 54 (blade 2, node 25), m
        162     2.10569595337E+002                                                     F               0         Z-component position of node 54 (blade 2, node 25), m
        163     2.39647045135E+001                                                     F               0         X-component position of node 55 (blade 2, node 26), m
        164     8.48977279663E+001                                                     F               0         Y-component position of node 55 (blade 2, node 26), m
        165     2.12705780029E+002                                                     F               0         Z-component position of node 55 (blade 2, node 26), m
        166     2.44113540649E+001                                                     F               0         X-component position of node 56 (blade 2, node 27), m
        167     8.80909118652E+001                                                     F               0         Y-component position of node 56 (blade 2, node 27), m
        168     2.14841567993E+002                                                     F               0         Z-component position of node 56 (blade 2, node 27), m
        169     2.47900161743E+001                                                     F               0         X-component position of node 57 (blade 2, node 28), m
        170     9.07980422974E+001                                                     F               0         Y-component position of node 57 (blade 2, node 28), m
        171     2.16652252197E+002                                                     F               0         Z-component position of node 57 (blade 2, node 28), m
        172     1.12897310257E+001                                                     F               0         X-component position of node 58 (blade 3, node 1), m