
Linearized model: Predictions were generated on 06-Feb-2024 at 10:15:48 using OpenFAST, compiled as a 64-bit application using single precision at commit v3.5.1
 linked with  NWTC Subroutine Library; ElastoDyn; InflowWind; AeroDyn; ServoDyn; HydroDyn; MAP++ (<1.20.10>, <Oct-20-2023>)

Description from the FAST input file: CCT-9 Campign 4 model. Input files to be run with OpenFAST 3.5.0. GitHub branch from Lu Wang (https://github.com/luwang00/openfast/tree/dev) compiled on March 7, 2023.

Simulation information:
   Simulation time:                  1007.7000 s
   Rotor Speed:                         1.0422 rad/s
   Azimuth:                             2.7765 rad
   Wind Speed:                         12.0000 m/s
   Number of continuous states:         0
   Number of discrete states:           0
   Number of constraint states:         0
   Number of inputs:                 1746
   Number of outputs:                   4
   Jacobians included in this file?    No

Order of inputs:
     Column   Operating Point                     Rotating Frame? Derivative Order Description
   ---------- ---------------                     --------------- ---------------- -----------
          1    1.513E+01                                 F               0         Tower X translation displacement, node 1, m
          2   -1.174E+00                                 F               0         Tower Y translation displacement, node 1, m
          3   -4.920E-01                                 F               0         Tower Z translation displacement, node 1, m
          4    1.706E+01                                 F               0         Tower X translation displacement, node 2, m
          5   -1.820E+00                                 F               0         Tower Y translation displacement, node 2, m
          6   -6.601E-01                                 F               0         Tower Z translation displacement, node 2, m
          7    1.902E+01                                 F               0         Tower X translation displacement, node 3, m
          8   -2.472E+00                                 F               0         Tower Y translation displacement, node 3, m
          9   -8.341E-01                                 F               0         Tower Z translation displacement, node 3, m
         10    2.101E+01                                 F               0         Tower X translation displacement, node 4, m
         11   -3.130E+00                                 F               0         Tower Y translation displacement, node 4, m
         12   -1.013E+00                                 F               0         Tower Z translation displacement, node 4, m
         13    2.301E+01                                 F               0         Tower X translation displacement, node 5, m
         14   -3.792E+00                                 F               0         Tower Y translation displacement, node 5, m
         15   -1.195E+00                                 F               0         Tower Z translation displacement, node 5, m
         16    2.504E+01                                 F               0         Tower X translation displacement, node 6, m
         17   -4.458E+00                                 F               0         Tower Y translation displacement, node 6, m
         18   -1.381E+00                                 F               0         Tower Z translation displacement, node 6, m
         19    2.708E+01                                 F               0         Tower X translation displacement, node 7, m
         20   -5.127E+00                                 F               0         Tower Y translation displacement, node 7, m
         21   -1.569E+00                                 F               0         Tower Z translation displacement, node 7, m
         22    2.913E+01                                 F               0         Tower X translation displacement, node 8, m
         23   -5.799E+00                                 F               0         Tower Y translation displacement, node 8, m
         24   -1.759E+00                                 F               0         Tower Z translation displacement, node 8, m
         25    3.119E+01                                 F               0         Tower X translation displacement, node 9, m
         26   -6.473E+00                                 F               0         Tower Y translation displacement, node 9, m
         27   -1.950E+00                                 F               0         Tower Z translation displacement, node 9, m
         28    3.326E+01                                 F               0         Tower X translation displacement, node 10, m
         29   -7.148E+00                                 F               0         Tower Y translation displacement, node 10, m
         30   -2.143E+00                                 F               0         Tower Z translation displacement, node 10, m
         31    3.533E+01                                 F               0         Tower X translation displacement, node 11, m
         32   -7.824E+00                                 F               0         Tower Y translation displacement, node 11, m
         33   -2.336E+00                                 F               0         Tower Z translation displacement, node 11, m
         34    9.879E-01,  1.407E-02, -1.543E-01         F               0         Tower X orientation angle, node 1, rad
         35   -5.849E-03,  9.985E-01,  5.361E-02         F               0         Tower Y orientation angle, node 1, rad
         36    1.548E-01, -5.206E-02,  9.866E-01         F               0         Tower Z orientation angle, node 1, rad
         37    9.875E-01,  1.421E-02, -1.569E-01         F               0         Tower X orientation angle, node 2, rad
         38   -5.764E-03,  9.985E-01,  5.414E-02         F               0         Tower Y orientation angle, node 2, rad
         39    1.574E-01, -5.256E-02,  9.861E-01         F               0         Tower Z orientation angle, node 2, rad
         40    9.871E-01,  1.433E-02, -1.592E-01         F               0         Tower X orientation angle, node 3, rad
         41   -5.687E-03,  9.985E-01,  5.463E-02         F               0         Tower Y orientation angle, node 3, rad
         42    1.597E-01, -5.302E-02,  9.857E-01         F               0         Tower Z orientation angle, node 3, rad
         43    9.868E-01,  1.444E-02, -1.611E-01         F               0         Tower X orientation angle, node 4, rad
         44   -5.618E-03,  9.985E-01,  5.505E-02         F               0         Tower Y orientation angle, node 4, rad
         45    1.617E-01, -5.342E-02,  9.854E-01         F               0         Tower Z orientation angle, node 4, rad
         46    9.866E-01,  1.452E-02, -1.628E-01         F               0         Tower X orientation angle, node 5, rad
         47   -5.559E-03,  9.984E-01,  5.541E-02         F               0         Tower Y orientation angle, node 5, rad
         48    1.633E-01, -5.376E-02,  9.851E-01         F               0         Tower Z orientation angle, node 5, rad
         49    9.863E-01,  1.460E-02, -1.641E-01         F               0         Tower X orientation angle, node 6, rad
         50   -5.509E-03,  9.984E-01,  5.571E-02         F               0         Tower Y orientation angle, node 6, rad
         51    1.646E-01, -5.404E-02,  9.849E-01         F               0         Tower Z orientation angle, node 6, rad
         52    9.862E-01,  1.465E-02, -1.651E-01         F               0         Tower X orientation angle, node 7, rad
         53   -5.468E-03,  9.984E-01,  5.595E-02         F               0         Tower Y orientation angle, node 7, rad
         54    1.657E-01, -5.428E-02,  9.847E-01         F               0         Tower Z orientation angle, node 7, rad
         55    9.860E-01,  1.470E-02, -1.659E-01         F               0         Tower X orientation angle, node 8, rad
         56   -5.436E-03,  9.984E-01,  5.614E-02         F               0         Tower Y orientation angle, node 8, rad
         57    1.664E-01, -5.445E-02,  9.845E-01         F               0         Tower Z orientation angle, node 8, rad
         58    9.859E-01,  1.473E-02, -1.664E-01         F               0         Tower X orientation angle, node 9, rad
         59   -5.413E-03,  9.984E-01,  5.628E-02         F               0         Tower Y orientation angle, node 9, rad
         60    1.670E-01, -5.459E-02,  9.844E-01         F               0         Tower Z orientation angle, node 9, rad
         61    9.859E-01,  1.474E-02, -1.667E-01         F               0         Tower X orientation angle, node 10, rad
         62   -5.398E-03,  9.984E-01,  5.637E-02         F               0         Tower Y orientation angle, node 10, rad
         63    1.673E-01, -5.467E-02,  9.844E-01         F               0         Tower Z orientation angle, node 10, rad
         64    9.859E-01,  1.475E-02, -1.669E-01         F               0         Tower X orientation angle, node 11, rad
         65   -5.390E-03,  9.984E-01,  5.642E-02         F               0         Tower Y orientation angle, node 11, rad
         66    1.675E-01, -5.472E-02,  9.844E-01         F               0         Tower Z orientation angle, node 11, rad
         67   -9.974E-04                                 F               0         Tower X translation velocity, node 1, m/s
         68    1.162E-03                                 F               0         Tower Y translation velocity, node 1, m/s
         69    5.870E-03                                 F               0         Tower Z translation velocity, node 1, m/s
         70   -1.895E-03                                 F               0         Tower X translation velocity, node 2, m/s
         71    2.174E-03                                 F               0         Tower Y translation velocity, node 2, m/s
         72    6.066E-03                                 F               0         Tower Z translation velocity, node 2, m/s
         73   -2.850E-03                                 F               0         Tower X translation velocity, node 3, m/s
         74    3.183E-03                                 F               0         Tower Y translation velocity, node 3, m/s
         75    6.274E-03                                 F               0         Tower Z translation velocity, node 3, m/s
         76   -3.854E-03                                 F               0         Tower X translation velocity, node 4, m/s
         77    4.189E-03                                 F               0         Tower Y translation velocity, node 4, m/s
         78    6.492E-03                                 F               0         Tower Z translation velocity, node 4, m/s
         79   -4.902E-03                                 F               0         Tower X translation velocity, node 5, m/s
         80    5.195E-03                                 F               0         Tower Y translation velocity, node 5, m/s
         81    6.719E-03                                 F               0         Tower Z translation velocity, node 5, m/s
         82   -5.990E-03                                 F               0         Tower X translation velocity, node 6, m/s
         83    6.200E-03                                 F               0         Tower Y translation velocity, node 6, m/s
         84    6.956E-03                                 F               0         Tower Z translation velocity, node 6, m/s
         85   -7.111E-03                                 F               0         Tower X translation velocity, node 7, m/s
         86    7.207E-03                                 F               0         Tower Y translation velocity, node 7, m/s
         87    7.199E-03                                 F               0         Tower Z translation velocity, node 7, m/s
         88   -8.262E-03                                 F               0         Tower X translation velocity, node 8, m/s
         89    8.215E-03                                 F               0         Tower Y translation velocity, node 8, m/s
         90    7.449E-03                                 F               0         Tower Z translation velocity, node 8, m/s
         91   -9.437E-03                                 F               0         Tower X translation velocity, node 9, m/s
         92    9.224E-03                                 F               0         Tower Y translation velocity, node 9, m/s
         93    7.704E-03                                 F               0         Tower Z translation velocity, node 9, m/s
         94   -1.063E-02                                 F               0         Tower X translation velocity, node 10, m/s
         95    1.023E-02                                 F               0         Tower Y translation velocity, node 10, m/s
         96    7.962E-03                                 F               0         Tower Z translation velocity, node 10, m/s
         97   -1.184E-02                                 F               0         Tower X translation velocity, node 11, m/s
         98    1.125E-02                                 F               0         Tower Y translation velocity, node 11, m/s
         99    8.224E-03                                 F               0         Tower Z translation velocity, node 11, m/s
        100    3.680E+01                                 F               0         Hub X translation displacement, node 1, m
        101   -8.413E+00                                 F               0         Hub Y translation displacement, node 1, m
        102   -6.562E-01                                 F               0         Hub Z translation displacement, node 1, m
        103    9.630E-01,  2.039E-02, -2.689E-01         F               0         Hub X orientation angle, node 1, rad
        104    1.013E-01, -9.515E-01,  2.906E-01         F               0         Hub Y orientation angle, node 1, rad
        105   -2.499E-01, -3.071E-01, -9.183E-01         F               0         Hub Z orientation angle, node 1, rad
        106    1.004E+00                                 F               0         Hub X rotation velocity, node 1, rad/s
        107    2.113E-02                                 F               0         Hub Y rotation velocity, node 1, rad/s
        108   -2.799E-01                                 F               0         Hub Z rotation velocity, node 1, rad/s
        109    9.595E-01,  4.861E-02, -2.774E-01         F               0         Blade root 1 X orientation angle, node 1, rad
        110    1.298E-01, -9.504E-01,  2.825E-01         F               0         Blade root 1 Y orientation angle, node 1, rad
        111   -2.499E-01, -3.071E-01, -9.183E-01         F               0         Blade root 1 Z orientation angle, node 1, rad
        112    9.705E-01,  1.416E-02, -2.409E-01         F               0         Blade root 2 X orientation angle, node 1, rad
        113   -2.384E-01,  2.103E-01, -9.481E-01         F               0         Blade root 2 Y orientation angle, node 1, rad
        114    3.722E-02,  9.775E-01,  2.074E-01         F               0         Blade root 2 Z orientation angle, node 1, rad
        115    9.576E-01, -1.618E-03, -2.881E-01         F               0         Blade root 3 X orientation angle, node 1, rad
        116    1.943E-01,  7.420E-01,  6.417E-01         F               0         Blade root 3 Y orientation angle, node 1, rad
        117    2.127E-01, -6.704E-01,  7.108E-01         F               0         Blade root 3 Z orientation angle, node 1, rad
        118    3.483E+01                                 F               0         Blade 1 X translation displacement, node 1, m
        119   -1.011E+01                                 F               0         Blade 1 Y translation displacement, node 1, m
        120   -1.125E+01                                 F               0         Blade 1 Z translation displacement, node 1, m
        121    3.436E+01                                 F               0         Blade 1 X translation displacement, node 2, m
        122   -1.052E+01                                 F               0         Blade 1 Y translation displacement, node 2, m
        123   -1.381E+01                                 F               0         Blade 1 Z translation displacement, node 2, m
        124    2.792E+01                                 F               0         Blade 1 X translation displacement, node 3, m
        125   -1.610E+01                                 F               0         Blade 1 Y translation displacement, node 3, m
        126   -4.853E+01                                 F               0         Blade 1 Z translation displacement, node 3, m
        127    2.655E+01                                 F               0         Blade 1 X translation displacement, node 4, m
        128   -1.729E+01                                 F               0         Blade 1 Y translation displacement, node 4, m
        129   -5.593E+01                                 F               0         Blade 1 Z translation displacement, node 4, m
        130    2.518E+01                                 F               0         Blade 1 X translation displacement, node 5, m
        131   -1.847E+01                                 F               0         Blade 1 Y translation displacement, node 5, m
        132   -6.332E+01                                 F               0         Blade 1 Z translation displacement, node 5, m
        133    2.381E+01                                 F               0         Blade 1 X translation displacement, node 6, m
        134   -1.966E+01                                 F               0         Blade 1 Y translation displacement, node 6, m
        135   -7.072E+01                                 F               0         Blade 1 Z translation displacement, node 6, m
        136    2.244E+01                                 F               0         Blade 1 X translation displacement, node 7, m
        137   -2.085E+01                                 F               0         Blade 1 Y translation displacement, node 7, m
        138   -7.812E+01                                 F               0         Blade 1 Z translation displacement, node 7, m
        139    2.107E+01                                 F               0         Blade 1 X translation displacement, node 8, m
        140   -2.204E+01                                 F               0         Blade 1 Y translation displacement, node 8, m
        141   -8.552E+01                                 F               0         Blade 1 Z translation displacement, node 8, m
        142    1.970E+01                                 F               0         Blade 1 X translation displacement, node 9, m
        143   -2.323E+01                                 F               0         Blade 1 Y translation displacement, node 9, m
        144   -9.292E+01                                 F               0         Blade 1 Z translation displacement, node 9, m
        145    1.833E+01                                 F               0         Blade 1 X translation displacement, node 10, m
        146   -2.441E+01                                 F               0         Blade 1 Y translation displacement, node 10, m
        147   -1.003E+02                                 F               0         Blade 1 Z translation displacement, node 10, m
        148    1.696E+01                                 F               0         Blade 1 X translation displacement, node 11, m
        149   -2.560E+01                                 F               0         Blade 1 Y translation displacement, node 11, m
        150   -1.077E+02                                 F               0         Blade 1 Z translation displacement, node 11, m
        151    1.559E+01                                 F               0         Blade 1 X translation displacement, node 12, m
        152   -2.679E+01                                 F               0         Blade 1 Y translation displacement, node 12, m
        153   -1.151E+02                                 F               0         Blade 1 Z translation displacement, node 12, m
        154    1.422E+01                                 F               0         Blade 1 X translation displacement, node 13, m
        155   -2.798E+01                                 F               0         Blade 1 Y translation displacement, node 13, m
        156   -1.225E+02                                 F               0         Blade 1 Z translation displacement, node 13, m
        157    1.284E+01                                 F               0         Blade 1 X translation displacement, node 14, m
        158   -2.917E+01                                 F               0         Blade 1 Y translation displacement, node 14, m
        159   -1.299E+02                                 F               0         Blade 1 Z translation displacement, node 14, m
        160    1.147E+01                                 F               0         Blade 1 X translation displacement, node 15, m
        161   -3.035E+01                                 F               0         Blade 1 Y translation displacement, node 15, m
        162   -1.373E+02                                 F               0         Blade 1 Z translation displacement, node 15, m
        163    1.010E+01                                 F               0         Blade 1 X translation displacement, node 16, m
        164   -3.154E+01                                 F               0         Blade 1 Y translation displacement, node 16, m
        165   -1.447E+02                                 F               0         Blade 1 Z translation displacement, node 16, m
        166    8.731E+00                                 F               0         Blade 1 X translation displacement, node 17, m
        167   -3.273E+01                                 F               0         Blade 1 Y translation displacement, node 17, m
        168   -1.521E+02                                 F               0         Blade 1 Z translation displacement, node 17, m
        169    7.361E+00                                 F               0         Blade 1 X translation displacement, node 18, m
        170   -3.392E+01                                 F               0         Blade 1 Y translation displacement, node 18, m
        171   -1.595E+02                                 F               0         Blade 1 Z translation displacement, node 18, m
        172    5.990E+00                                 F               0         Blade 1 X translation displacement, node 19, m
        173   -3.510E+01                                 F               0         Blade 1 Y translation displacement, node 19, m
        174   -1.669E+02                                 F               0         Blade 1 Z translation displacement, node 19, m
        175    4.619E+00                                 F               0         Blade 1 X translation displacement, node 20, m
        176   -3.629E+01                                 F               0         Blade 1 Y translation displacement, node 20, m
        177   -1.743E+02                                 F               0         Blade 1 Z translation displacement, node 20, m
        178    3.248E+00                                 F               0         Blade 1 X translation displacement, node 21, m
        179   -3.748E+01                                 F               0         Blade 1 Y translation displacement, node 21, m
        180   -1.817E+02                                 F               0         Blade 1 Z translation displacement, node 21, m
        181    1.877E+00                                 F               0         Blade 1 X translation displacement, node 22, m
        182   -3.867E+01                                 F               0         Blade 1 Y translation displacement, node 22, m
        183   -1.891E+02                                 F               0         Blade 1 Z translation displacement, node 22, m
        184    5.059E-01                                 F               0         Blade 1 X translation displacement, node 23, m
        185   -3.986E+01                                 F               0         Blade 1 Y translation displacement, node 23, m
        186   -1.965E+02                                 F               0         Blade 1 Z translation displacement, node 23, m
        187   -8.650E-01                                 F               0         Blade 1 X translation displacement, node 24, m
        188   -4.104E+01                                 F               0         Blade 1 Y translation displacement, node 24, m
        189   -2.039E+02                                 F               0         Blade 1 Z translation displacement, node 24, m
        190   -2.236E+00                                 F               0         Blade 1 X translation displacement, node 25, m
        191   -4.223E+01                                 F               0         Blade 1 Y translation displacement, node 25, m
        192   -2.113E+02                                 F               0         Blade 1 Z translation displacement, node 25, m
        193   -3.607E+00                                 F               0         Blade 1 X translation displacement, node 26, m
        194   -4.342E+01                                 F               0         Blade 1 Y translation displacement, node 26, m
        195   -2.187E+02                                 F               0         Blade 1 Z translation displacement, node 26, m
        196   -4.978E+00                                 F               0         Blade 1 X translation displacement, node 27, m
        197   -4.461E+01                                 F               0         Blade 1 Y translation displacement, node 27, m
        198   -2.261E+02                                 F               0         Blade 1 Z translation displacement, node 27, m
        199   -6.140E+00                                 F               0         Blade 1 X translation displacement, node 28, m
        200   -4.561E+01                                 F               0         Blade 1 Y translation displacement, node 28, m
        201   -2.324E+02                                 F               0         Blade 1 Z translation displacement, node 28, m
        202    7.947E-01,  4.767E-01, -3.757E-01         F               0         Blade 1 X orientation angle, node 1, rad
        203    5.531E-01, -8.237E-01,  1.249E-01         F               0         Blade 1 Y orientation angle, node 1, rad
        204   -2.499E-01, -3.071E-01, -9.183E-01         F               0         Blade 1 Z orientation angle, node 1, rad
        205    7.947E-01,  4.767E-01, -3.757E-01         F               0         Blade 1 X orientation angle, node 2, rad
        206    5.531E-01, -8.237E-01,  1.249E-01         F               0         Blade 1 Y orientation angle, node 2, rad
        207   -2.499E-01, -3.071E-01, -9.183E-01         F               0         Blade 1 Z orientation angle, node 2, rad
        208    9.032E-01,  2.679E-01, -3.354E-01         F               0         Blade 1 X orientation angle, node 3, rad
        209    3.490E-01, -9.132E-01,  2.104E-01         F               0         Blade 1 Y orientation angle, node 3, rad
        210   -2.499E-01, -3.071E-01, -9.183E-01         F               0         Blade 1 Z orientation angle, node 3, rad
        211    9.171E-01,  2.291E-01, -3.262E-01         F               0         Blade 1 X orientation angle, node 4, rad
        212    3.105E-01, -9.237E-01,  2.244E-01         F               0         Blade 1 Y orientation angle, node 4, rad
        213   -2.499E-01, -3.071E-01, -9.183E-01         F               0         Blade 1 Z orientation angle, node 4, rad
        214    9.269E-01,  1.983E-01, -3.186E-01         F               0         Blade 1 X orientation angle, node 5, rad
        215    2.800E-01, -9.308E-01,  2.351E-01         F               0         Blade 1 Y orientation angle, node 5, rad
        216   -2.499E-01, -3.071E-01, -9.183E-01         F               0         Blade 1 Z orientation angle, node 5, rad
        217    9.340E-01,  1.736E-01, -3.123E-01         F               0         Blade 1 X orientation angle, node 6, rad
        218    2.553E-01, -9.357E-01,  2.435E-01         F               0         Blade 1 Y orientation angle, node 6, rad
        219   -2.499E-01, -3.071E-01, -9.183E-01         F               0         Blade 1 Z orientation angle, node 6, rad
        220    9.394E-01,  1.531E-01, -3.069E-01         F               0         Blade 1 X orientation angle, node 7, rad
        221    2.348E-01, -9.393E-01,  2.502E-01         F               0         Blade 1 Y orientation angle, node 7, rad
        222   -2.499E-01, -3.071E-01, -9.183E-01         F               0         Blade 1 Z orientation angle, node 7, rad
        223    9.435E-01,  1.360E-01, -3.023E-01         F               0         Blade 1 X orientation angle, node 8, rad
        224    2.177E-01, -9.419E-01,  2.558E-01         F               0         Blade 1 Y orientation angle, node 8, rad
        225   -2.499E-01, -3.071E-01, -9.183E-01         F               0         Blade 1 Z orientation angle, node 8, rad
        226    9.467E-01,  1.215E-01, -2.983E-01         F               0         Blade 1 X orientation angle, node 9, rad
        227    2.032E-01, -9.439E-01,  2.604E-01         F               0         Blade 1 Y orientation angle, node 9, rad