
Linearized model: Predictions were generated on 13-Feb-2024 at 12:12:09 using OpenFAST, compiled as a 64-bit application using single precision at commit v3.5.1
 linked with  NWTC Subroutine Library; ElastoDyn; InflowWind; AeroDyn; ServoDyn; HydroDyn; MAP++ (<1.20.10>, <Oct-20-2023>)

Description from the FAST input file: CCT-9 Campign 4 model. Input files to be run with OpenFAST 3.5.0. GitHub branch from Lu Wang (https://github.com/luwang00/openfast/tree/dev) compiled on March 7, 2023.

Simulation information:
   Simulation time:                   773.3250 s
   Rotor Speed:                         0.7918 rad/s
   Azimuth:                             2.2878 rad
   Wind Speed:                         24.0000 m/s
   Number of continuous states:        22
   Number of discrete states:           0
   Number of constraint states:         0
   Number of inputs:                 1890
   Number of outputs:                  25
   Jacobians included in this file?    No

Order of continuous states:
   Row/Column Operating Point                                                   Rotating Frame? Derivative Order Description
   ---------- ---------------                                                   --------------- ---------------- -----------
          1     6.82185077667E+000                                                     F               2         Platform horizontal surge translation DOF (internal DOF index = DOF_Sg), m
          2    -8.26007544994E-001                                                     F               2         Platform horizontal sway translation DOF (internal DOF index = DOF_Sw), m
          3    -1.05061605573E-001                                                     F               2         Platform vertical heave translation DOF (internal DOF index = DOF_Hv), m
          4     5.43526597321E-002                                                     F               2         Platform roll tilt rotation DOF (internal DOF index = DOF_R), rad
          5     9.51263532043E-002                                                     F               2         Platform pitch tilt rotation DOF (internal DOF index = DOF_P), rad
          6    -9.32149216533E-003                                                     F               2         Platform yaw rotation DOF (internal DOF index = DOF_Y), rad
          7     5.68133234978E-001                                                     F               2         1st tower fore-aft bending mode DOF (internal DOF index = DOF_TFA1), m
          8     2.76350229979E-001                                                     F               2         1st tower side-to-side bending mode DOF (internal DOF index = DOF_TSS1), m
          9     1.45382131450E-003                                                     F               2         2nd tower fore-aft bending mode DOF (internal DOF index = DOF_TFA2), m
         10    -3.03063978208E-004                                                     F               2         2nd tower side-to-side bending mode DOF (internal DOF index = DOF_TSS2), m
         11     7.16987073421E-001                                                     F               2         Variable speed generator DOF (internal DOF index = DOF_GeAz), rad
         12    -2.71375011653E-003                                                     F               2         First time derivative of Platform horizontal surge translation DOF (internal DOF index = DOF_Sg), m/s
         13    -2.65216454864E-004                                                     F               2         First time derivative of Platform horizontal sway translation DOF (internal DOF index = DOF_Sw), m/s
         14    -7.08155625034E-004                                                     F               2         First time derivative of Platform vertical heave translation DOF (internal DOF index = DOF_Hv), m/s
         15     5.57625753572E-005                                                     F               2         First time derivative of Platform roll tilt rotation DOF (internal DOF index = DOF_R), rad/s
         16    -1.40464209835E-004                                                     F               2         First time derivative of Platform pitch tilt rotation DOF (internal DOF index = DOF_P), rad/s
         17    -1.02033500298E-005                                                     F               2         First time derivative of Platform yaw rotation DOF (internal DOF index = DOF_Y), rad/s
         18     3.11752185225E-002                                                     F               2         First time derivative of 1st tower fore-aft bending mode DOF (internal DOF index = DOF_TFA1), m/s
         19    -1.34202074260E-002                                                     F               2         First time derivative of 1st tower side-to-side bending mode DOF (internal DOF index = DOF_TSS1), m/s
         20     1.06467748992E-004                                                     F               2         First time derivative of 2nd tower fore-aft bending mode DOF (internal DOF index = DOF_TFA2), m/s
         21     3.25424002767E-006                                                     F               2         First time derivative of 2nd tower side-to-side bending mode DOF (internal DOF index = DOF_TSS2), m/s
         22     7.91762709618E-001                                                     F               2         First time derivative of Variable speed generator DOF (internal DOF index = DOF_GeAz), rad/s

Order of continuous state derivatives:
   Row/Column Operating Point                                                   Rotating Frame? Derivative Order Description
   ---------- ---------------                                                   --------------- ---------------- -----------
          1    -2.71375011653E-003                                                     F               2         First time derivative of Platform horizontal surge translation DOF (internal DOF index = DOF_Sg), m/s
          2    -2.65216454864E-004                                                     F               2         First time derivative of Platform horizontal sway translation DOF (internal DOF index = DOF_Sw), m/s
          3    -7.08155625034E-004                                                     F               2         First time derivative of Platform vertical heave translation DOF (internal DOF index = DOF_Hv), m/s
          4     5.57625753572E-005                                                     F               2         First time derivative of Platform roll tilt rotation DOF (internal DOF index = DOF_R), rad/s
          5    -1.40464209835E-004                                                     F               2         First time derivative of Platform pitch tilt rotation DOF (internal DOF index = DOF_P), rad/s
          6    -1.02033500298E-005                                                     F               2         First time derivative of Platform yaw rotation DOF (internal DOF index = DOF_Y), rad/s
          7     3.11752185225E-002                                                     F               2         First time derivative of 1st tower fore-aft bending mode DOF (internal DOF index = DOF_TFA1), m/s
          8    -1.34202074260E-002                                                     F               2         First time derivative of 1st tower side-to-side bending mode DOF (internal DOF index = DOF_TSS1), m/s
          9     1.06467748992E-004                                                     F               2         First time derivative of 2nd tower fore-aft bending mode DOF (internal DOF index = DOF_TFA2), m/s
         10     3.25424002767E-006                                                     F               2         First time derivative of 2nd tower side-to-side bending mode DOF (internal DOF index = DOF_TSS2), m/s
         11     7.91762709618E-001                                                     F               2         First time derivative of Variable speed generator DOF (internal DOF index = DOF_GeAz), rad/s
         12     7.87762179971E-003                                                     F               2         First time derivative of First time derivative of Platform horizontal surge translation DOF (internal DOF index = DOF_Sg), m/s/s
         13    -3.38183902204E-003                                                     F               2         First time derivative of First time derivative of Platform horizontal sway translation DOF (internal DOF index = DOF_Sw), m/s/s
         14    -1.79487024434E-003                                                     F               2         First time derivative of First time derivative of Platform vertical heave translation DOF (internal DOF index = DOF_Hv), m/s/s
         15     2.16278407606E-004                                                     F               2         First time derivative of First time derivative of Platform roll tilt rotation DOF (internal DOF index = DOF_R), rad/s/s
         16     4.52581298305E-004                                                     F               2         First time derivative of First time derivative of Platform pitch tilt rotation DOF (internal DOF index = DOF_P), rad/s/s
         17     3.88770567952E-005                                                     F               2         First time derivative of First time derivative of Platform yaw rotation DOF (internal DOF index = DOF_Y), rad/s/s
         18    -1.00132256746E-001                                                     F               2         First time derivative of First time derivative of 1st tower fore-aft bending mode DOF (internal DOF index = DOF_TFA1), m/s/s
         19    -3.69961708784E-002                                                     F               2         First time derivative of First time derivative of 1st tower side-to-side bending mode DOF (internal DOF index = DOF_TSS1), m/s/s
         20     2.58359941654E-003                                                     F               2         First time derivative of First time derivative of 2nd tower fore-aft bending mode DOF (internal DOF index = DOF_TFA2), m/s/s
         21     5.16508116561E-005                                                     F               2         First time derivative of First time derivative of 2nd tower side-to-side bending mode DOF (internal DOF index = DOF_TSS2), m/s/s
         22     1.00898172241E-003                                                     F               2         First time derivative of First time derivative of Variable speed generator DOF (internal DOF index = DOF_GeAz), rad/s/s

Order of inputs:
     Column   Operating Point                                                   Rotating Frame? Derivative Order Description
   ---------- ---------------                                                   --------------- ---------------- -----------
          1     4.15278900146E+002                                                     F               0         Blade 1 X force, node 1, N
          2    -1.64944747925E+002                                                     F               0         Blade 1 Y force, node 1, N
          3     8.50268020630E+001                                                     F               0         Blade 1 Z force, node 1, N
          4     1.57957824707E+003                                                     F               0         Blade 1 X force, node 2, N
          5    -2.61467956543E+002                                                     F               0         Blade 1 Y force, node 2, N
          6    -5.80080223083E+001                                                     F               0         Blade 1 Z force, node 2, N
          7     1.76304833984E+003                                                     F               0         Blade 1 X force, node 3, N
          8     5.83498191833E+001                                                     F               0         Blade 1 Y force, node 3, N
          9    -4.29762573242E+002                                                     F               0         Blade 1 Z force, node 3, N
         10     2.11218139648E+003                                                     F               0         Blade 1 X force, node 4, N
         11     3.48772247314E+002                                                     F               0         Blade 1 Y force, node 4, N
         12    -8.05544128418E+002                                                     F               0         Blade 1 Z force, node 4, N
         13     2.46133251953E+003                                                     F               0         Blade 1 X force, node 5, N
         14     6.39200195312E+002                                                     F               0         Blade 1 Y force, node 5, N
         15    -1.18133532715E+003                                                     F               0         Blade 1 Z force, node 5, N
         16     2.81046923828E+003                                                     F               0         Blade 1 X force, node 6, N
         17     9.29625793457E+002                                                     F               0         Blade 1 Y force, node 6, N
         18    -1.55712097168E+003                                                     F               0         Blade 1 Z force, node 6, N
         19     3.15958496094E+003                                                     F               0         Blade 1 X force, node 7, N
         20     1.22004333496E+003                                                     F               0         Blade 1 Y force, node 7, N
         21    -1.93289367676E+003                                                     F               0         Blade 1 Z force, node 7, N
         22     3.50871801758E+003                                                     F               0         Blade 1 X force, node 8, N
         23     1.51046569824E+003                                                     F               0         Blade 1 Y force, node 8, N
         24    -2.30867529297E+003                                                     F               0         Blade 1 Z force, node 8, N
         25     3.85785131836E+003                                                     F               0         Blade 1 X force, node 9, N
         26     1.80088830566E+003                                                     F               0         Blade 1 Y force, node 9, N
         27    -2.68445678711E+003                                                     F               0         Blade 1 Z force, node 9, N
         28     4.20698437500E+003                                                     F               0         Blade 1 X force, node 10, N
         29     2.09131054688E+003                                                     F               0         Blade 1 Y force, node 10, N
         30    -3.06023828125E+003                                                     F               0         Blade 1 Z force, node 10, N
         31     4.55611767578E+003                                                     F               0         Blade 1 X force, node 11, N
         32     2.38173315430E+003                                                     F               0         Blade 1 Y force, node 11, N
         33    -3.43602001953E+003                                                     F               0         Blade 1 Z force, node 11, N
         34     4.90528466797E+003                                                     F               0         Blade 1 X force, node 12, N
         35     2.67217456055E+003                                                     F               0         Blade 1 Y force, node 12, N
         36    -3.81182861328E+003                                                     F               0         Blade 1 Z force, node 12, N
         37     5.25442138672E+003                                                     F               0         Blade 1 X force, node 13, N
         38     2.96260009766E+003                                                     F               0         Blade 1 Y force, node 13, N
         39    -4.18761425781E+003                                                     F               0         Blade 1 Z force, node 13, N
         40     5.60352099609E+003                                                     F               0         Blade 1 X force, node 14, N
         41     3.25300415039E+003                                                     F               0         Blade 1 Y force, node 14, N
         42    -4.56336962891E+003                                                     F               0         Blade 1 Z force, node 14, N
         43     5.95269335938E+003                                                     F               0         Blade 1 X force, node 15, N
         44     3.54345092773E+003                                                     F               0         Blade 1 Y force, node 15, N
         45    -4.93918457031E+003                                                     F               0         Blade 1 Z force, node 15, N
         46     6.30178564453E+003                                                     F               0         Blade 1 X force, node 16, N
         47     3.83384814453E+003                                                     F               0         Blade 1 Y force, node 16, N
         48    -5.31493164062E+003                                                     F               0         Blade 1 Z force, node 16, N
         49     7.69889843750E+003                                                     F               0         Blade 1 X force, node 17, N
         50     4.76356933594E+003                                                     F               0         Blade 1 Y force, node 17, N
         51    -6.57638769531E+003                                                     F               0         Blade 1 Z force, node 17, N
         52     5.76361914062E+003                                                     F               0         Blade 1 X force, node 18, N
         53     3.50999023438E+003                                                     F               0         Blade 1 Y force, node 18, N
         54    -4.86474169922E+003                                                     F               0         Blade 1 Z force, node 18, N
         55     6.92285937500E+003                                                     F               0         Blade 1 X force, node 19, N
         56     4.10459667969E+003                                                     F               0         Blade 1 Y force, node 19, N
         57    -5.72711474609E+003                                                     F               0         Blade 1 Z force, node 19, N
         58     5.78436718750E+003                                                     F               0         Blade 1 X force, node 20, N
         59     3.33999877930E+003                                                     F               0         Blade 1 Y force, node 20, N
         60    -4.69189306641E+003                                                     F               0         Blade 1 Z force, node 20, N
         61     8.34232128906E+003                                                     F               0         Blade 1 X force, node 21, N
         62     4.67074462891E+003                                                     F               0         Blade 1 Y force, node 21, N
         63    -6.61427734375E+003                                                     F               0         Blade 1 Z force, node 21, N
         64     7.18555468750E+003                                                     F               0         Blade 1 X force, node 22, N
         65     3.90340429688E+003                                                     F               0         Blade 1 Y force, node 22, N
         66    -5.57237402344E+003                                                     F               0         Blade 1 Z force, node 22, N
         67     7.21991796875E+003                                                     F               0         Blade 1 X force, node 23, N
         68     3.81268383789E+003                                                     F               0         Blade 1 Y force, node 23, N
         69    -5.48500292969E+003                                                     F               0         Blade 1 Z force, node 23, N
         70     7.37700390625E+003                                                     F               0         Blade 1 X force, node 24, N
         71     3.78683154297E+003                                                     F               0         Blade 1 Y force, node 24, N
         72    -5.49092822266E+003                                                     F               0         Blade 1 Z force, node 24, N
         73     7.38674414062E+003                                                     F               0         Blade 1 X force, node 25, N
         74     3.68958959961E+003                                                     F               0         Blade 1 Y force, node 25, N
         75    -5.39160644531E+003                                                     F               0         Blade 1 Z force, node 25, N
         76     7.43430273438E+003                                                     F               0         Blade 1 X force, node 26, N
         77     3.61313891602E+003                                                     F               0         Blade 1 Y force, node 26, N
         78    -5.32187109375E+003                                                     F               0         Blade 1 Z force, node 26, N
         79     8.69991699219E+003                                                     F               0         Blade 1 X force, node 27, N
         80     4.10604052734E+003                                                     F               0         Blade 1 Y force, node 27, N
         81    -6.10049169922E+003                                                     F               0         Blade 1 Z force, node 27, N
         82     6.29122949219E+003                                                     F               0         Blade 1 X force, node 28, N
         83     2.88795092773E+003                                                     F               0         Blade 1 Y force, node 28, N
         84    -4.32677050781E+003                                                     F               0         Blade 1 Z force, node 28, N
         85     7.53122753906E+003                                                     F               0         Blade 1 X force, node 29, N
         86     3.37722729492E+003                                                     F               0         Blade 1 Y force, node 29, N
         87    -5.09625195312E+003                                                     F               0         Blade 1 Z force, node 29, N
         88     6.27410937500E+003                                                     F               0         Blade 1 X force, node 30, N
         89     2.74753149414E+003                                                     F               0         Blade 1 Y force, node 30, N
         90    -4.17682177734E+003                                                     F               0         Blade 1 Z force, node 30, N
         91     8.82598535156E+003                                                     F               0         Blade 1 X force, node 31, N
         92     3.76009741211E+003                                                     F               0         Blade 1 Y force, node 31, N
         93    -5.76628076172E+003                                                     F               0         Blade 1 Z force, node 31, N
         94     7.51364208984E+003                                                     F               0         Blade 1 X force, node 32, N
         95     3.11677270508E+003                                                     F               0         Blade 1 Y force, node 32, N
         96    -4.82108886719E+003                                                     F               0         Blade 1 Z force, node 32, N
         97     7.47436425781E+003                                                     F               0         Blade 1 X force, node 33, N
         98     3.02154956055E+003                                                     F               0         Blade 1 Y force, node 33, N
         99    -4.71361328125E+003                                                     F               0         Blade 1 Z force, node 33, N
        100     7.43024218750E+003                                                     F               0         Blade 1 X force, node 34, N
        101     2.92635742188E+003                                                     F               0         Blade 1 Y force, node 34, N
        102    -4.60515722656E+003                                                     F               0         Blade 1 Z force, node 34, N
        103     7.35909326172E+003                                                     F               0         Blade 1 X force, node 35, N
        104     2.82820117188E+003                                                     F               0         Blade 1 Y force, node 35, N
        105    -4.48795507812E+003                                                     F               0         Blade 1 Z force, node 35, N
        106     7.27922802734E+003                                                     F               0         Blade 1 X force, node 36, N
        107     2.72854833984E+003                                                     F               0         Blade 1 Y force, node 36, N
        108    -4.36736962891E+003                                                     F               0         Blade 1 Z force, node 36, N
        109     8.40408105469E+003                                                     F               0         Blade 1 X force, node 37, N
        110     3.06436621094E+003                                                     F               0         Blade 1 Y force, node 37, N
        111    -4.95279833984E+003                                                     F               0         Blade 1 Z force, node 37, N
        112     5.89407861328E+003                                                     F               0         Blade 1 X force, node 38, N
        113     2.09427685547E+003                                                     F               0         Blade 1 Y force, node 38, N
        114    -3.41637792969E+003                                                     F               0         Blade 1 Z force, node 38, N
        115     6.98787353516E+003                                                     F               0         Blade 1 X force, node 39, N
        116     2.42926245117E+003                                                     F               0         Blade 1 Y force, node 39, N
        117    -3.99443994141E+003                                                     F               0         Blade 1 Z force, node 39, N
        118     5.76405029297E+003                                                     F               0         Blade 1 X force, node 40, N
        119     1.95809716797E+003                                                     F               0         Blade 1 Y force, node 40, N
        120    -3.24722119141E+003                                                     F               0         Blade 1 Z force, node 40, N
        121     7.86054443359E+003                                                     F               0         Blade 1 X force, node 41, N
        122     2.59861621094E+003                                                     F               0         Blade 1 Y force, node 41, N
        123    -4.35358349609E+003                                                     F               0         Blade 1 Z force, node 41, N
        124     6.59840478516E+003                                                     F               0         Blade 1 X force, node 42, N
        125     2.12438525391E+003                                                     F               0         Blade 1 Y force, node 42, N
        126    -3.59515063477E+003                                                     F               0         Blade 1 Z force, node 42, N
        127     6.44584277344E+003                                                     F               0         Blade 1 X force, node 43, N
        128     2.02092138672E+003                                                     F               0         Blade 1 Y force, node 43, N
        129    -3.45538012695E+003                                                     F               0         Blade 1 Z force, node 43, N
        130     6.32291894531E+003                                                     F               0         Blade 1 X force, node 44, N
        131     1.92805468750E+003                                                     F               0         Blade 1 Y force, node 44, N
        132    -3.33285742188E+003                                                     F               0         Blade 1 Z force, node 44, N
        133     6.08842724609E+003                                                     F               0         Blade 1 X force, node 45, N
        134     1.80826086426E+003                                                     F               0         Blade 1 Y force, node 45, N