
Linearized model: Predictions were generated on 13-Feb-2024 at 12:12:09 using OpenFAST, compiled as a 64-bit application using single precision at commit v3.5.1
 linked with  NWTC Subroutine Library; ElastoDyn; InflowWind; AeroDyn; ServoDyn; HydroDyn; MAP++ (<1.20.10>, <Oct-20-2023>)

Description from the FAST input file: CCT-9 Campign 4 model. Input files to be run with OpenFAST 3.5.0. GitHub branch from Lu Wang (https://github.com/luwang00/openfast/tree/dev) compiled on March 7, 2023.

Simulation information:
   Simulation time:                   770.9000 s
   Rotor Speed:                         0.7918 rad/s
   Azimuth:                             0.3678 rad
   Wind Speed:                         24.0000 m/s
   Number of continuous states:         0
   Number of discrete states:           0
   Number of constraint states:         0
   Number of inputs:                   37
   Number of outputs:                   7
   Jacobians included in this file?    No

Order of inputs:
     Column   Operating Point                                                   Rotating Frame? Derivative Order Description
   ---------- ---------------                                                   --------------- ---------------- -----------
          1     6.82409572601E+000                                                     F               0         WAMIT X translation displacement, node 1, m
          2    -8.27835679054E-001                                                     F               0         WAMIT Y translation displacement, node 1, m
          3    -1.06776982546E-001                                                     F               0         WAMIT Z translation displacement, node 1, m
          4     9.95473563671E-001,  -6.69336598366E-003,  -9.48031172156E-002         F               0         WAMIT X orientation angle, node 1, rad
          5     1.18202203885E-002,   9.98491406441E-001,   5.36211021245E-002         F               0         WAMIT Y orientation angle, node 1, rad
          6     9.43011939526E-002,  -5.44989816844E-002,   9.94050860405E-001         F               0         WAMIT Z orientation angle, node 1, rad
          7    -2.15999130160E-003                                                     F               0         WAMIT X translation velocity, node 1, m/s
          8    -1.62433891091E-003                                                     F               0         WAMIT Y translation velocity, node 1, m/s
          9     2.27514817379E-003                                                     F               0         WAMIT Z translation velocity, node 1, m/s
         10     1.18692492833E-004                                                     F               0         WAMIT X rotation velocity, node 1, rad/s
         11    -3.14140816045E-005                                                     F               0         WAMIT Y rotation velocity, node 1, rad/s
         12    -1.32261156978E-005                                                     F               0         WAMIT Z rotation velocity, node 1, rad/s
         13     1.11634740606E-002                                                     F               0         WAMIT X translation acceleration, node 1, m/s^2
         14    -1.03287992533E-003                                                     F               0         WAMIT Y translation acceleration, node 1, m/s^2
         15    -1.94227276370E-003                                                     F               0         WAMIT Z translation acceleration, node 1, m/s^2
         16     7.61222690926E-005                                                     F               0         WAMIT X rotation acceleration, node 1, rad/s^2
         17     6.22042105533E-004                                                     F               0         WAMIT Y rotation acceleration, node 1, rad/s^2
         18     4.87952966068E-005                                                     F               0         WAMIT Z rotation acceleration, node 1, rad/s^2
         19     6.82409572601E+000                                                     F               0         Platform-RefPt X translation displacement, node 1, m
         20    -8.27835679054E-001                                                     F               0         Platform-RefPt Y translation displacement, node 1, m
         21    -1.06776982546E-001                                                     F               0         Platform-RefPt Z translation displacement, node 1, m
         22     9.95473563671E-001,  -6.69336598366E-003,  -9.48031172156E-002         F               0         Platform-RefPt X orientation angle, node 1, rad
         23     1.18202203885E-002,   9.98491406441E-001,   5.36211021245E-002         F               0         Platform-RefPt Y orientation angle, node 1, rad
         24     9.43011939526E-002,  -5.44989816844E-002,   9.94050860405E-001         F               0         Platform-RefPt Z orientation angle, node 1, rad
         25    -2.15999130160E-003                                                     F               0         Platform-RefPt X translation velocity, node 1, m/s
         26    -1.62433891091E-003                                                     F               0         Platform-RefPt Y translation velocity, node 1, m/s
         27     2.27514817379E-003                                                     F               0         Platform-RefPt Z translation velocity, node 1, m/s
         28     1.18692492833E-004                                                     F               0         Platform-RefPt X rotation velocity, node 1, rad/s
         29    -3.14140816045E-005                                                     F               0         Platform-RefPt Y rotation velocity, node 1, rad/s
         30    -1.32261156978E-005                                                     F               0         Platform-RefPt Z rotation velocity, node 1, rad/s
         31     1.11634740606E-002                                                     F               0         Platform-RefPt X translation acceleration, node 1, m/s^2
         32    -1.03287992533E-003                                                     F               0         Platform-RefPt Y translation acceleration, node 1, m/s^2
         33    -1.94227276370E-003                                                     F               0         Platform-RefPt Z translation acceleration, node 1, m/s^2
         34     7.61222690926E-005                                                     F               0         Platform-RefPt X rotation acceleration, node 1, rad/s^2
         35     6.22042105533E-004                                                     F               0         Platform-RefPt Y rotation acceleration, node 1, rad/s^2
         36     4.87952966068E-005                                                     F               0         Platform-RefPt Z rotation acceleration, node 1, rad/s^2
         37     0.00000000000E+000                                                     F               0         Extended input: wave elevation at platform ref point, m

Order of outputs:
        Row   Operating Point                                                   Rotating Frame? Derivative Order Description
   ---------- ---------------                                                   --------------- ---------------- -----------
          1     0.00000000000E+000                                                     F               0         Wave1Elev, (m)
          2    -9.00589687500E+004                                                     F               0         HydroFxi, (N)
          3     2.47170190430E+003                                                     F               0         HydroFyi, (N)
          4     2.03851296000E+008                                                     F               0         HydroFzi, (N)
          5    -1.16865752000E+008                                                     F               0         HydroMxi, (N-m)
          6    -2.08928464000E+008                                                     F               0         HydroMyi, (N-m)
          7    -9.55951375000E+005                                                     F               0         HydroMzi, (N-m)


Linearized state matrices:

D: 7 x 37
     0.00000000000E+000   0.00000000000E+000   0.00000000000E+000   0.00000000000E+000   0.00000000000E+000   0.00000000000E+000   0.00000000000E+000   0.00000000000E+000   0.00000000000E+000   0.00000000000E+000   0.00000000000E+000   0.00000000000E+000   0.00000000000E+000   0.00000000000E+000   0.00000000000E+000   0.00000000000E+000   0.00000000000E+000   0.00000000000E+000   0.00000000000E+000   0.00000000000E+000   0.00000000000E+000   0.00000000000E+000   0.00000000000E+000   0.00000000000E+000   0.00000000000E+000   0.00000000000E+000   0.00000000000E+000   0.00000000000E+000   0.00000000000E+000   0.00000000000E+000   0.00000000000E+000   0.00000000000E+000   0.00000000000E+000   0.00000000000E+000   0.00000000000E+000   0.00000000000E+000   0.00000000000E+000
    -6.86001893231E+003   0.00000000000E+000   0.00000000000E+000   0.00000000000E+000   0.00000000000E+000   0.00000000000E+000  -2.82211208386E+005   0.00000000000E+000   0.00000000000E+000   0.00000000000E+000   0.00000000000E+000   0.00000000000E+000  -9.38083794618E+006   0.00000000000E+000   1.99512100047E+001   0.00000000000E+000   9.82680351759E+007   0.00000000000E+000   0.00000000000E+000   0.00000000000E+000   0.00000000000E+000   0.00000000000E+000   0.00000000000E+000   0.00000000000E+000   0.00000000000E+000   0.00000000000E+000   0.00000000000E+000   0.00000000000E+000   0.00000000000E+000   0.00000000000E+000   0.00000000000E+000   0.00000000000E+000   0.00000000000E+000   0.00000000000E+000   0.00000000000E+000   0.00000000000E+000   0.00000000000E+000
     0.00000000000E+000   0.00000000000E+000   0.00000000000E+000   0.00000000000E+000   0.00000000000E+000   0.00000000000E+000   0.00000000000E+000  -2.82194614351E+005   0.00000000000E+000   0.00000000000E+000   0.00000000000E+000   0.00000000000E+000   0.00000000000E+000  -9.38088807999E+006   0.00000000000E+000  -9.82662375208E+007   0.00000000000E+000   1.78568117338E+003   0.00000000000E+000   0.00000000000E+000   0.00000000000E+000   0.00000000000E+000   0.00000000000E+000   0.00000000000E+000   0.00000000000E+000   0.00000000000E+000   0.00000000000E+000   0.00000000000E+000   0.00000000000E+000   0.00000000000E+000   0.00000000000E+000   0.00000000000E+000   0.00000000000E+000   0.00000000000E+000   0.00000000000E+000   0.00000000000E+000   0.00000000000E+000
     0.00000000000E+000   0.00000000000E+000  -4.39488118772E+006   0.00000000000E+000   3.89611303707E+003   0.00000000000E+000   0.00000000000E+000   0.00000000000E+000  -8.06659137797E+005   0.00000000000E+000   0.00000000000E+000   0.00000000000E+000   6.54808943743E+001   0.00000000000E+000  -2.41346861249E+007   0.00000000000E+000   1.74179171069E+004   0.00000000000E+000   0.00000000000E+000   0.00000000000E+000   0.00000000000E+000   0.00000000000E+000   0.00000000000E+000   0.00000000000E+000   0.00000000000E+000   0.00000000000E+000   0.00000000000E+000   0.00000000000E+000   0.00000000000E+000   0.00000000000E+000   0.00000000000E+000   0.00000000000E+000   0.00000000000E+000   0.00000000000E+000   0.00000000000E+000   0.00000000000E+000   0.00000000000E+000
     0.00000000000E+000   2.03851256993E+008  -2.45553353904E+003  -2.13421463291E+009   0.00000000000E+000   8.88084589332E+004   0.00000000000E+000   0.00000000000E+000   0.00000000000E+000  -2.78330293959E+009   0.00000000000E+000   0.00000000000E+000   0.00000000000E+000  -9.82009442628E+007   0.00000000000E+000  -1.13246530020E+010   0.00000000000E+000   5.30558922401E+004   0.00000000000E+000  -2.03851256993E+008   2.45553353904E+003   0.00000000000E+000   0.00000000000E+000   0.00000000000E+000   0.00000000000E+000   0.00000000000E+000   0.00000000000E+000   0.00000000000E+000   0.00000000000E+000   0.00000000000E+000   0.00000000000E+000   0.00000000000E+000   0.00000000000E+000   0.00000000000E+000   0.00000000000E+000   0.00000000000E+000   0.00000000000E+000
    -2.03851322474E+008   0.00000000000E+000  -8.60418952078E+004   0.00000000000E+000  -2.13398109531E+009   0.00000000000E+000   0.00000000000E+000   0.00000000000E+000   0.00000000000E+000   0.00000000000E+000  -2.78327635435E+009   0.00000000000E+000   9.82036617200E+007   0.00000000000E+000   1.93168638404E+004   0.00000000000E+000  -1.13240534590E+010   0.00000000000E+000   2.03851322474E+008   0.00000000000E+000   8.99707488703E+004   0.00000000000E+000   0.00000000000E+000   0.00000000000E+000   0.00000000000E+000   0.00000000000E+000   0.00000000000E+000   0.00000000000E+000   0.00000000000E+000   0.00000000000E+000   0.00000000000E+000   0.00000000000E+000   0.00000000000E+000   0.00000000000E+000   0.00000000000E+000   0.00000000000E+000   0.00000000000E+000
     2.47139219314E+003   9.00584830373E+004   0.00000000000E+000   0.00000000000E+000   0.00000000000E+000   0.00000000000E+000   0.00000000000E+000   0.00000000000E+000   0.00000000000E+000   0.00000000000E+000   0.00000000000E+000  -2.51327434578E+009   0.00000000000E+000   1.55338074818E+003   0.00000000000E+000   4.40398641159E+004   0.00000000000E+000  -1.95913504720E+010  -2.47139219314E+003  -9.00584830373E+004   0.00000000000E+000   0.00000000000E+000   0.00000000000E+000   0.00000000000E+000   0.00000000000E+000   0.00000000000E+000   0.00000000000E+000   0.00000000000E+000   0.00000000000E+000   0.00000000000E+000   0.00000000000E+000   0.00000000000E+000   0.00000000000E+000   0.00000000000E+000   0.00000000000E+000   0.00000000000E+000   0.00000000000E+000
