
Linearized model: Predictions were generated on 12-Jan-2024 at 09:28:28 using OpenFAST, compiled as a 64-bit application using single precision at commit v3.5.1
 linked with  NWTC Subroutine Library; ElastoDyn; InflowWind; AeroDyn; ServoDyn; HydroDyn; MAP++ (<1.20.10>, <Oct-20-2023>)

Description from the FAST input file: CCT-9 Campign 4 model. Input files to be run with OpenFAST 3.5.0. GitHub branch from Lu Wang (https://github.com/luwang00/openfast/tree/dev) compiled on March 7, 2023.

Simulation information:
   Simulation time:                   505.4500 s
   Rotor Speed:                         0.8775 rad/s
   Azimuth:                             2.3532 rad
   Wind Speed:                         10.0000 m/s
   Number of continuous states:        22
   Number of discrete states:           0
   Number of constraint states:         0
   Number of inputs:                 3988
   Number of outputs:                  58
   Jacobians included in this file?    No

Order of continuous states:
   Row/Column Operating Point                     Rotating Frame? Derivative Order Description
   ---------- ---------------                     --------------- ---------------- -----------
          1    8.832E+00                                 F               2         ED Platform horizontal surge translation DOF (internal DOF index = DOF_Sg), m
          2   -3.599E-01                                 F               2         ED Platform horizontal sway translation DOF (internal DOF index = DOF_Sw), m
          3   -1.706E-01                                 F               2         ED Platform vertical heave translation DOF (internal DOF index = DOF_Hv), m
          4    4.792E-02                                 F               2         ED Platform roll tilt rotation DOF (internal DOF index = DOF_R), rad
          5    1.188E-01                                 F               2         ED Platform pitch tilt rotation DOF (internal DOF index = DOF_P), rad
          6    7.192E-03                                 F               2         ED Platform yaw rotation DOF (internal DOF index = DOF_Y), rad
          7    7.550E-01                                 F               2         ED 1st tower fore-aft bending mode DOF (internal DOF index = DOF_TFA1), m
          8    1.942E-01                                 F               2         ED 1st tower side-to-side bending mode DOF (internal DOF index = DOF_TSS1), m
          9    1.526E-03                                 F               2         ED 2nd tower fore-aft bending mode DOF (internal DOF index = DOF_TFA2), m
         10    8.305E-05                                 F               2         ED 2nd tower side-to-side bending mode DOF (internal DOF index = DOF_TSS2), m
         11    7.824E-01                                 F               2         ED Variable speed generator DOF (internal DOF index = DOF_GeAz), rad
         12   -4.428E-03                                 F               2         ED First time derivative of Platform horizontal surge translation DOF (internal DOF index = DOF_Sg), m/s
         13    1.868E-03                                 F               2         ED First time derivative of Platform horizontal sway translation DOF (internal DOF index = DOF_Sw), m/s
         14    4.598E-03                                 F               2         ED First time derivative of Platform vertical heave translation DOF (internal DOF index = DOF_Hv), m/s
         15   -1.979E-04                                 F               2         ED First time derivative of Platform roll tilt rotation DOF (internal DOF index = DOF_R), rad/s
         16   -1.488E-05                                 F               2         ED First time derivative of Platform pitch tilt rotation DOF (internal DOF index = DOF_P), rad/s
         17    1.088E-04                                 F               2         ED First time derivative of Platform yaw rotation DOF (internal DOF index = DOF_Y), rad/s
         18    6.251E-04                                 F               2         ED First time derivative of 1st tower fore-aft bending mode DOF (internal DOF index = DOF_TFA1), m/s
         19    2.544E-03                                 F               2         ED First time derivative of 1st tower side-to-side bending mode DOF (internal DOF index = DOF_TSS1), m/s
         20    5.390E-06                                 F               2         ED First time derivative of 2nd tower fore-aft bending mode DOF (internal DOF index = DOF_TFA2), m/s
         21   -1.314E-06                                 F               2         ED First time derivative of 2nd tower side-to-side bending mode DOF (internal DOF index = DOF_TSS2), m/s
         22    8.775E-01                                 F               2         ED First time derivative of Variable speed generator DOF (internal DOF index = DOF_GeAz), rad/s

Order of continuous state derivatives:
   Row/Column Operating Point                     Rotating Frame? Derivative Order Description
   ---------- ---------------                     --------------- ---------------- -----------
          1   -4.428E-03                                 F               2         First time derivative of ED Platform horizontal surge translation DOF (internal DOF index = DOF_Sg), m/s
          2    1.868E-03                                 F               2         First time derivative of ED Platform horizontal sway translation DOF (internal DOF index = DOF_Sw), m/s
          3    4.598E-03                                 F               2         First time derivative of ED Platform vertical heave translation DOF (internal DOF index = DOF_Hv), m/s
          4   -1.979E-04                                 F               2         First time derivative of ED Platform roll tilt rotation DOF (internal DOF index = DOF_R), rad/s
          5   -1.488E-05                                 F               2         First time derivative of ED Platform pitch tilt rotation DOF (internal DOF index = DOF_P), rad/s
          6    1.088E-04                                 F               2         First time derivative of ED Platform yaw rotation DOF (internal DOF index = DOF_Y), rad/s
          7    6.251E-04                                 F               2         First time derivative of ED 1st tower fore-aft bending mode DOF (internal DOF index = DOF_TFA1), m/s
          8    2.544E-03                                 F               2         First time derivative of ED 1st tower side-to-side bending mode DOF (internal DOF index = DOF_TSS1), m/s
          9    5.390E-06                                 F               2         First time derivative of ED 2nd tower fore-aft bending mode DOF (internal DOF index = DOF_TFA2), m/s
         10   -1.314E-06                                 F               2         First time derivative of ED 2nd tower side-to-side bending mode DOF (internal DOF index = DOF_TSS2), m/s
         11    8.775E-01                                 F               2         First time derivative of ED Variable speed generator DOF (internal DOF index = DOF_GeAz), rad/s
         12    4.582E-04                                 F               2         First time derivative of ED First time derivative of Platform horizontal surge translation DOF (internal DOF index = DOF_Sg), m/s/s
         13   -3.394E-04                                 F               2         First time derivative of ED First time derivative of Platform horizontal sway translation DOF (internal DOF index = DOF_Sw), m/s/s
         14    6.336E-04                                 F               2         First time derivative of ED First time derivative of Platform vertical heave translation DOF (internal DOF index = DOF_Hv), m/s/s
         15   -1.187E-04                                 F               2         First time derivative of ED First time derivative of Platform roll tilt rotation DOF (internal DOF index = DOF_R), rad/s/s
         16    3.546E-05                                 F               2         First time derivative of ED First time derivative of Platform pitch tilt rotation DOF (internal DOF index = DOF_P), rad/s/s
         17    3.165E-05                                 F               2         First time derivative of ED First time derivative of Platform yaw rotation DOF (internal DOF index = DOF_Y), rad/s/s
         18   -8.371E-03                                 F               2         First time derivative of ED First time derivative of 1st tower fore-aft bending mode DOF (internal DOF index = DOF_TFA1), m/s/s
         19    3.845E-03                                 F               2         First time derivative of ED First time derivative of 1st tower side-to-side bending mode DOF (internal DOF index = DOF_TSS1), m/s/s
         20    4.390E-06                                 F               2         First time derivative of ED First time derivative of 2nd tower fore-aft bending mode DOF (internal DOF index = DOF_TFA2), m/s/s
         21    1.475E-06                                 F               2         First time derivative of ED First time derivative of 2nd tower side-to-side bending mode DOF (internal DOF index = DOF_TSS2), m/s/s
         22    2.835E-04                                 F               2         First time derivative of ED First time derivative of Variable speed generator DOF (internal DOF index = DOF_GeAz), rad/s/s

Order of inputs:
     Column   Operating Point                     Rotating Frame? Derivative Order Description
   ---------- ---------------                     --------------- ---------------- -----------
          1   -1.080E+01                                 F               0         IfW X-component position of node 1 (hub), m
          2    0.000E+00                                 F               0         IfW Y-component position of node 1 (hub), m
          3    1.497E+02                                 F               0         IfW Z-component position of node 1 (hub), m
          4    1.573E+01                                 F               0         IfW X-component position of node 2 (blade 1, node 1), m
          5   -1.147E+01                                 F               0         IfW Y-component position of node 2 (blade 1, node 1), m
          6    1.456E+02                                 F               0         IfW Z-component position of node 2 (blade 1, node 1), m
          7    1.552E+01                                 F               0         IfW X-component position of node 3 (blade 1, node 2), m
          8   -1.237E+01                                 F               0         IfW Y-component position of node 3 (blade 1, node 2), m
          9    1.447E+02                                 F               0         IfW Z-component position of node 3 (blade 1, node 2), m
         10    1.263E+01                                 F               0         IfW X-component position of node 4 (blade 1, node 3), m
         11   -2.461E+01                                 F               0         IfW Y-component position of node 4 (blade 1, node 3), m
         12    1.316E+02                                 F               0         IfW Z-component position of node 4 (blade 1, node 3), m
         13    1.201E+01                                 F               0         IfW X-component position of node 5 (blade 1, node 4), m
         14   -2.722E+01                                 F               0         IfW Y-component position of node 5 (blade 1, node 4), m
         15    1.288E+02                                 F               0         IfW Z-component position of node 5 (blade 1, node 4), m
         16    1.140E+01                                 F               0         IfW X-component position of node 6 (blade 1, node 5), m
         17   -2.983E+01                                 F               0         IfW Y-component position of node 6 (blade 1, node 5), m
         18    1.260E+02                                 F               0         IfW Z-component position of node 6 (blade 1, node 5), m
         19    1.078E+01                                 F               0         IfW X-component position of node 7 (blade 1, node 6), m
         20   -3.244E+01                                 F               0         IfW Y-component position of node 7 (blade 1, node 6), m
         21    1.232E+02                                 F               0         IfW Z-component position of node 7 (blade 1, node 6), m
         22    1.017E+01                                 F               0         IfW X-component position of node 8 (blade 1, node 7), m
         23   -3.504E+01                                 F               0         IfW Y-component position of node 8 (blade 1, node 7), m
         24    1.204E+02                                 F               0         IfW Z-component position of node 8 (blade 1, node 7), m
         25    9.549E+00                                 F               0         IfW X-component position of node 9 (blade 1, node 8), m
         26   -3.765E+01                                 F               0         IfW Y-component position of node 9 (blade 1, node 8), m
         27    1.176E+02                                 F               0         IfW Z-component position of node 9 (blade 1, node 8), m
         28    8.934E+00                                 F               0         IfW X-component position of node 10 (blade 1, node 9), m
         29   -4.026E+01                                 F               0         IfW Y-component position of node 10 (blade 1, node 9), m
         30    1.148E+02                                 F               0         IfW Z-component position of node 10 (blade 1, node 9), m
         31    8.319E+00                                 F               0         IfW X-component position of node 11 (blade 1, node 10), m
         32   -4.287E+01                                 F               0         IfW Y-component position of node 11 (blade 1, node 10), m
         33    1.120E+02                                 F               0         IfW Z-component position of node 11 (blade 1, node 10), m
         34    7.703E+00                                 F               0         IfW X-component position of node 12 (blade 1, node 11), m
         35   -4.548E+01                                 F               0         IfW Y-component position of node 12 (blade 1, node 11), m
         36    1.093E+02                                 F               0         IfW Z-component position of node 12 (blade 1, node 11), m
         37    7.087E+00                                 F               0         IfW X-component position of node 13 (blade 1, node 12), m
         38   -4.809E+01                                 F               0         IfW Y-component position of node 13 (blade 1, node 12), m
         39    1.065E+02                                 F               0         IfW Z-component position of node 13 (blade 1, node 12), m
         40    6.472E+00                                 F               0         IfW X-component position of node 14 (blade 1, node 13), m
         41   -5.070E+01                                 F               0         IfW Y-component position of node 14 (blade 1, node 13), m
         42    1.037E+02                                 F               0         IfW Z-component position of node 14 (blade 1, node 13), m
         43    5.857E+00                                 F               0         IfW X-component position of node 15 (blade 1, node 14), m
         44   -5.330E+01                                 F               0         IfW Y-component position of node 15 (blade 1, node 14), m
         45    1.009E+02                                 F               0         IfW Z-component position of node 15 (blade 1, node 14), m
         46    5.241E+00                                 F               0         IfW X-component position of node 16 (blade 1, node 15), m
         47   -5.591E+01                                 F               0         IfW Y-component position of node 16 (blade 1, node 15), m
         48    9.810E+01                                 F               0         IfW Z-component position of node 16 (blade 1, node 15), m
         49    4.625E+00                                 F               0         IfW X-component position of node 17 (blade 1, node 16), m
         50   -5.852E+01                                 F               0         IfW Y-component position of node 17 (blade 1, node 16), m
         51    9.532E+01                                 F               0         IfW Z-component position of node 17 (blade 1, node 16), m
         52    4.010E+00                                 F               0         IfW X-component position of node 18 (blade 1, node 17), m
         53   -6.113E+01                                 F               0         IfW Y-component position of node 18 (blade 1, node 17), m
         54    9.253E+01                                 F               0         IfW Z-component position of node 18 (blade 1, node 17), m
         55    3.395E+00                                 F               0         IfW X-component position of node 19 (blade 1, node 18), m
         56   -6.374E+01                                 F               0         IfW Y-component position of node 19 (blade 1, node 18), m
         57    8.974E+01                                 F               0         IfW Z-component position of node 19 (blade 1, node 18), m
         58    2.779E+00                                 F               0         IfW X-component position of node 20 (blade 1, node 19), m
         59   -6.635E+01                                 F               0         IfW Y-component position of node 20 (blade 1, node 19), m
         60    8.695E+01                                 F               0         IfW Z-component position of node 20 (blade 1, node 19), m
         61    2.164E+00                                 F               0         IfW X-component position of node 21 (blade 1, node 20), m
         62   -6.896E+01                                 F               0         IfW Y-component position of node 21 (blade 1, node 20), m
         63    8.416E+01                                 F               0         IfW Z-component position of node 21 (blade 1, node 20), m
         64    1.548E+00                                 F               0         IfW X-component position of node 22 (blade 1, node 21), m
         65   -7.156E+01                                 F               0         IfW Y-component position of node 22 (blade 1, node 21), m
         66    8.137E+01                                 F               0         IfW Z-component position of node 22 (blade 1, node 21), m
         67    9.325E-01                                 F               0         IfW X-component position of node 23 (blade 1, node 22), m
         68   -7.417E+01                                 F               0         IfW Y-component position of node 23 (blade 1, node 22), m
         69    7.859E+01                                 F               0         IfW Z-component position of node 23 (blade 1, node 22), m
         70    3.170E-01                                 F               0         IfW X-component position of node 24 (blade 1, node 23), m
         71   -7.678E+01                                 F               0         IfW Y-component position of node 24 (blade 1, node 23), m
         72    7.580E+01                                 F               0         IfW Z-component position of node 24 (blade 1, node 23), m
         73   -2.985E-01                                 F               0         IfW X-component position of node 25 (blade 1, node 24), m
         74   -7.939E+01                                 F               0         IfW Y-component position of node 25 (blade 1, node 24), m
         75    7.301E+01                                 F               0         IfW Z-component position of node 25 (blade 1, node 24), m
         76   -9.139E-01                                 F               0         IfW X-component position of node 26 (blade 1, node 25), m
         77   -8.200E+01                                 F               0         IfW Y-component position of node 26 (blade 1, node 25), m
         78    7.022E+01                                 F               0         IfW Z-component position of node 26 (blade 1, node 25), m
         79   -1.530E+00                                 F               0         IfW X-component position of node 27 (blade 1, node 26), m
         80   -8.461E+01                                 F               0         IfW Y-component position of node 27 (blade 1, node 26), m
         81    6.743E+01                                 F               0         IfW Z-component position of node 27 (blade 1, node 26), m
         82   -2.145E+00                                 F               0         IfW X-component position of node 28 (blade 1, node 27), m
         83   -8.722E+01                                 F               0         IfW Y-component position of node 28 (blade 1, node 27), m
         84    6.464E+01                                 F               0         IfW Z-component position of node 28 (blade 1, node 27), m
         85   -2.667E+00                                 F               0         IfW X-component position of node 29 (blade 1, node 28), m
         86   -8.943E+01                                 F               0         IfW Y-component position of node 29 (blade 1, node 28), m
         87    6.228E+01                                 F               0         IfW Z-component position of node 29 (blade 1, node 28), m
         88    1.626E+01                                 F               0         IfW X-component position of node 30 (blade 2, node 1), m
         89   -2.321E+00                                 F               0         IfW Y-component position of node 30 (blade 2, node 1), m
         90    1.485E+02                                 F               0         IfW Z-component position of node 30 (blade 2, node 1), m
         91    1.617E+01                                 F               0         IfW X-component position of node 31 (blade 2, node 2), m
         92   -1.018E+00                                 F               0         IfW Y-component position of node 31 (blade 2, node 2), m
         93    1.482E+02                                 F               0         IfW Z-component position of node 31 (blade 2, node 2), m
         94    1.501E+01                                 F               0         IfW X-component position of node 32 (blade 2, node 3), m
         95    1.671E+01                                 F               0         IfW Y-component position of node 32 (blade 2, node 3), m
         96    1.445E+02                                 F               0         IfW Z-component position of node 32 (blade 2, node 3), m
         97    1.476E+01                                 F               0         IfW X-component position of node 33 (blade 2, node 4), m
         98    2.048E+01                                 F               0         IfW Y-component position of node 33 (blade 2, node 4), m
         99    1.437E+02                                 F               0         IfW Z-component position of node 33 (blade 2, node 4), m
        100    1.451E+01                                 F               0         IfW X-component position of node 34 (blade 2, node 5), m
        101    2.426E+01                                 F               0         IfW Y-component position of node 34 (blade 2, node 5), m
        102    1.429E+02                                 F               0         IfW Z-component position of node 34 (blade 2, node 5), m
        103    1.426E+01                                 F               0         IfW X-component position of node 35 (blade 2, node 6), m
        104    2.804E+01                                 F               0         IfW Y-component position of node 35 (blade 2, node 6), m
        105    1.421E+02                                 F               0         IfW Z-component position of node 35 (blade 2, node 6), m
        106    1.402E+01                                 F               0         IfW X-component position of node 36 (blade 2, node 7), m
        107    3.181E+01                                 F               0         IfW Y-component position of node 36 (blade 2, node 7), m
        108    1.413E+02                                 F               0         IfW Z-component position of node 36 (blade 2, node 7), m
        109    1.377E+01                                 F               0         IfW X-component position of node 37 (blade 2, node 8), m
        110    3.559E+01                                 F               0         IfW Y-component position of node 37 (blade 2, node 8), m
        111    1.405E+02                                 F               0         IfW Z-component position of node 37 (blade 2, node 8), m
        112    1.352E+01                                 F               0         IfW X-component position of node 38 (blade 2, node 9), m
        113    3.937E+01                                 F               0         IfW Y-component position of node 38 (blade 2, node 9), m
        114    1.397E+02                                 F               0         IfW Z-component position of node 38 (blade 2, node 9), m
        115    1.327E+01                                 F               0         IfW X-component position of node 39 (blade 2, node 10), m
        116    4.315E+01                                 F               0         IfW Y-component position of node 39 (blade 2, node 10), m
        117    1.389E+02                                 F               0         IfW Z-component position of node 39 (blade 2, node 10), m
        118    1.303E+01                                 F               0         IfW X-component position of node 40 (blade 2, node 11), m
        119    4.692E+01                                 F               0         IfW Y-component position of node 40 (blade 2, node 11), m
        120    1.381E+02                                 F               0         IfW Z-component position of node 40 (blade 2, node 11), m
        121    1.278E+01                                 F               0         IfW X-component position of node 41 (blade 2, node 12), m
        122    5.070E+01                                 F               0         IfW Y-component position of node 41 (blade 2, node 12), m
        123    1.373E+02                                 F               0         IfW Z-component position of node 41 (blade 2, node 12), m
        124    1.253E+01                                 F               0         IfW X-component position of node 42 (blade 2, node 13), m
        125    5.448E+01                                 F               0         IfW Y-component position of node 42 (blade 2, node 13), m
        126    1.365E+02                                 F               0         IfW Z-component position of node 42 (blade 2, node 13), m
        127    1.228E+01                                 F               0         IfW X-component position of node 43 (blade 2, node 14), m
        128    5.825E+01                                 F               0         IfW Y-component position of node 43 (blade 2, node 14), m
        129    1.357E+02                                 F               0         IfW Z-component position of node 43 (blade 2, node 14), m
        130    1.204E+01                                 F               0         IfW X-component position of node 44 (blade 2, node 15), m
        131    6.203E+01                                 F               0         IfW Y-component position of node 44 (blade 2, node 15), m
        132    1.349E+02                                 F               0         IfW Z-component position of node 44 (blade 2, node 15), m
        133    1.179E+01                                 F               0         IfW X-component position of node 45 (blade 2, node 16), m
        134    6.581E+01                                 F               0         IfW Y-component position of node 45 (blade 2, node 16), m
        135    1.341E+02                                 F               0         IfW Z-component position of node 45 (blade 2, node 16), m
        136    1.154E+01                                 F               0         IfW X-component position of node 46 (blade 2, node 17), m
        137    6.958E+01                                 F               0         IfW Y-component position of node 46 (blade 2, node 17), m
        138    1.333E+02                                 F               0         IfW Z-component position of node 46 (blade 2, node 17), m
        139    1.129E+01                                 F               0         IfW X-component position of node 47 (blade 2, node 18), m
        140    7.336E+01                                 F               0         IfW Y-component position of node 47 (blade 2, node 18), m
        141    1.325E+02                                 F               0         IfW Z-component position of node 47 (blade 2, node 18), m
        142    1.105E+01                                 F               0         IfW X-component position of node 48 (blade 2, node 19), m
        143    7.714E+01                                 F               0         IfW Y-component position of node 48 (blade 2, node 19), m
        144    1.317E+02                                 F               0         IfW Z-component position of node 48 (blade 2, node 19), m