
Linearized model: Predictions were generated on 13-Feb-2024 at 12:12:09 using OpenFAST, compiled as a 64-bit application using single precision at commit v3.5.1
 linked with  NWTC Subroutine Library; ElastoDyn; InflowWind; AeroDyn; ServoDyn; HydroDyn; MAP++ (<1.20.10>, <Oct-20-2023>)

Description from the FAST input file: CCT-9 Campign 4 model. Input files to be run with OpenFAST 3.5.0. GitHub branch from Lu Wang (https://github.com/luwang00/openfast/tree/dev) compiled on March 7, 2023.

Simulation information:
   Simulation time:                   777.2750 s
   Rotor Speed:                         0.7919 rad/s
   Azimuth:                             5.4164 rad
   Wind Speed:                         24.0000 m/s
   Number of continuous states:         0
   Number of discrete states:           0
   Number of constraint states:         0
   Number of inputs:                  303
   Number of outputs:                   1
   Jacobians included in this file?    No

Order of inputs:
     Column   Operating Point                                                   Rotating Frame? Derivative Order Description
   ---------- ---------------                                                   --------------- ---------------- -----------
          1    -1.08005075455E+001                                                     F               0         X-component position of node 1 (hub), m
          2     0.00000000000E+000                                                     F               0         Y-component position of node 1 (hub), m
          3     1.49740173340E+002                                                     F               0         Z-component position of node 1 (hub), m
          4     1.15773391724E+001                                                     F               0         X-component position of node 2 (blade 1, node 1), m
          5    -5.19591760635E+000                                                     F               0         Y-component position of node 2 (blade 1, node 1), m
          6     1.53491973877E+002                                                     F               0         Z-component position of node 2 (blade 1, node 1), m
          7     1.17658004761E+001                                                     F               0         X-component position of node 3 (blade 1, node 2), m
          8    -4.23032474518E+000                                                     F               0         Y-component position of node 3 (blade 1, node 2), m
          9     1.54394241333E+002                                                     F               0         Z-component position of node 3 (blade 1, node 2), m
         10     1.43285541534E+001                                                     F               0         X-component position of node 4 (blade 1, node 3), m
         11     8.90006732941E+000                                                     F               0         Y-component position of node 4 (blade 1, node 3), m
         12     1.66663513184E+002                                                     F               0         Z-component position of node 4 (blade 1, node 3), m
         13     1.48745660782E+001                                                     F               0         X-component position of node 5 (blade 1, node 4), m
         14     1.16975746155E+001                                                     F               0         Y-component position of node 5 (blade 1, node 4), m
         15     1.69277557373E+002                                                     F               0         Z-component position of node 5 (blade 1, node 4), m
         16     1.54206790924E+001                                                     F               0         X-component position of node 6 (blade 1, node 5), m
         17     1.44956150055E+001                                                     F               0         Y-component position of node 6 (blade 1, node 5), m
         18     1.71892089844E+002                                                     F               0         Z-component position of node 6 (blade 1, node 5), m
         19     1.59666919708E+001                                                     F               0         X-component position of node 7 (blade 1, node 6), m
         20     1.72931327820E+001                                                     F               0         Y-component position of node 7 (blade 1, node 6), m
         21     1.74506134033E+002                                                     F               0         Z-component position of node 7 (blade 1, node 6), m
         22     1.65127048492E+001                                                     F               0         X-component position of node 8 (blade 1, node 7), m
         23     2.00906620026E+001                                                     F               0         Y-component position of node 8 (blade 1, node 7), m
         24     1.77120193481E+002                                                     F               0         Z-component position of node 8 (blade 1, node 7), m
         25     1.70588169098E+001                                                     F               0         X-component position of node 9 (blade 1, node 8), m
         26     2.28886909485E+001                                                     F               0         Y-component position of node 9 (blade 1, node 8), m
         27     1.79734725952E+002                                                     F               0         Z-component position of node 9 (blade 1, node 8), m
         28     1.76048297882E+001                                                     F               0         X-component position of node 10 (blade 1, node 9), m
         29     2.56862201691E+001                                                     F               0         Y-component position of node 10 (blade 1, node 9), m
         30     1.82348785400E+002                                                     F               0         Z-component position of node 10 (blade 1, node 9), m
         31     1.81508426666E+001                                                     F               0         X-component position of node 11 (blade 1, node 10), m
         32     2.84837379456E+001                                                     F               0         Y-component position of node 11 (blade 1, node 10), m
         33     1.84962844849E+002                                                     F               0         Z-component position of node 11 (blade 1, node 10), m
         34     1.86968555450E+001                                                     F               0         X-component position of node 12 (blade 1, node 11), m
         35     3.12812690735E+001                                                     F               0         Y-component position of node 12 (blade 1, node 11), m
         36     1.87576904297E+002                                                     F               0         Z-component position of node 12 (blade 1, node 11), m
         37     1.92429676056E+001                                                     F               0         X-component position of node 13 (blade 1, node 12), m
         38     3.40792846680E+001                                                     F               0         Y-component position of node 13 (blade 1, node 12), m
         39     1.90191421509E+002                                                     F               0         Z-component position of node 13 (blade 1, node 12), m
         40     1.97889804840E+001                                                     F               0         X-component position of node 14 (blade 1, node 13), m
         41     3.68768157959E+001                                                     F               0         Y-component position of node 14 (blade 1, node 13), m
         42     1.92805480957E+002                                                     F               0         Z-component position of node 14 (blade 1, node 13), m
         43     2.03349933624E+001                                                     F               0         X-component position of node 15 (blade 1, node 14), m
         44     3.96743354797E+001                                                     F               0         Y-component position of node 15 (blade 1, node 14), m
         45     1.95419525146E+002                                                     F               0         Z-component position of node 15 (blade 1, node 14), m
         46     2.08811054230E+001                                                     F               0         X-component position of node 16 (blade 1, node 15), m
         47     4.24723701477E+001                                                     F               0         Y-component position of node 16 (blade 1, node 15), m
         48     1.98034057617E+002                                                     F               0         Z-component position of node 16 (blade 1, node 15), m
         49     2.14271202087E+001                                                     F               0         X-component position of node 17 (blade 1, node 16), m
         50     4.52698898315E+001                                                     F               0         Y-component position of node 17 (blade 1, node 16), m
         51     2.00648117065E+002                                                     F               0         Z-component position of node 17 (blade 1, node 16), m
         52     2.19731330872E+001                                                     F               0         X-component position of node 18 (blade 1, node 17), m
         53     4.80674247742E+001                                                     F               0         Y-component position of node 18 (blade 1, node 17), m
         54     2.03262176514E+002                                                     F               0         Z-component position of node 18 (blade 1, node 17), m
         55     2.25191459656E+001                                                     F               0         X-component position of node 19 (blade 1, node 18), m
         56     5.08649444580E+001                                                     F               0         Y-component position of node 19 (blade 1, node 18), m
         57     2.05876235962E+002                                                     F               0         Z-component position of node 19 (blade 1, node 18), m
         58     2.30652561188E+001                                                     F               0         X-component position of node 20 (blade 1, node 19), m
         59     5.36629638672E+001                                                     F               0         Y-component position of node 20 (blade 1, node 19), m
         60     2.08490753174E+002                                                     F               0         Z-component position of node 20 (blade 1, node 19), m
         61     2.36112689972E+001                                                     F               0         X-component position of node 21 (blade 1, node 20), m
         62     5.64604911804E+001                                                     F               0         Y-component position of node 21 (blade 1, node 20), m
         63     2.11104812622E+002                                                     F               0         Z-component position of node 21 (blade 1, node 20), m
         64     2.41572837830E+001                                                     F               0         X-component position of node 22 (blade 1, node 21), m
         65     5.92580146790E+001                                                     F               0         Y-component position of node 22 (blade 1, node 21), m
         66     2.13718856812E+002                                                     F               0         Z-component position of node 22 (blade 1, node 21), m
         67     2.47033958435E+001                                                     F               0         X-component position of node 23 (blade 1, node 22), m
         68     6.20560455322E+001                                                     F               0         Y-component position of node 23 (blade 1, node 22), m
         69     2.16333389282E+002                                                     F               0         Z-component position of node 23 (blade 1, node 22), m
         70     2.52494087219E+001                                                     F               0         X-component position of node 24 (blade 1, node 23), m
         71     6.48535766602E+001                                                     F               0         Y-component position of node 24 (blade 1, node 23), m
         72     2.18947463989E+002                                                     F               0         Z-component position of node 24 (blade 1, node 23), m
         73     2.57954216003E+001                                                     F               0         X-component position of node 25 (blade 1, node 24), m
         74     6.76511001587E+001                                                     F               0         Y-component position of node 25 (blade 1, node 24), m
         75     2.21561508179E+002                                                     F               0         Z-component position of node 25 (blade 1, node 24), m
         76     2.63414344788E+001                                                     F               0         X-component position of node 26 (blade 1, node 25), m
         77     7.04486160278E+001                                                     F               0         Y-component position of node 26 (blade 1, node 25), m
         78     2.24175567627E+002                                                     F               0         Z-component position of node 26 (blade 1, node 25), m
         79     2.68875484467E+001                                                     F               0         X-component position of node 27 (blade 1, node 26), m
         80     7.32466506958E+001                                                     F               0         Y-component position of node 27 (blade 1, node 26), m
         81     2.26790084839E+002                                                     F               0         Z-component position of node 27 (blade 1, node 26), m
         82     2.74335594177E+001                                                     F               0         X-component position of node 28 (blade 1, node 27), m
         83     7.60441665649E+001                                                     F               0         Y-component position of node 28 (blade 1, node 27), m
         84     2.29404144287E+002                                                     F               0         Z-component position of node 28 (blade 1, node 27), m
         85     2.78964614868E+001                                                     F               0         X-component position of node 29 (blade 1, node 28), m
         86     7.84158706665E+001                                                     F               0         Y-component position of node 29 (blade 1, node 28), m
         87     2.31620300293E+002                                                     F               0         Z-component position of node 29 (blade 1, node 28), m
         88     1.11121749878E+001                                                     F               0         X-component position of node 30 (blade 2, node 1), m
         89    -1.45197076797E+001                                                     F               0         Y-component position of node 30 (blade 2, node 1), m
         90     1.51272659302E+002                                                     F               0         Z-component position of node 30 (blade 2, node 1), m
         91     1.11885528564E+001                                                     F               0         X-component position of node 31 (blade 2, node 2), m
         92    -1.58007450104E+001                                                     F               0         Y-component position of node 31 (blade 2, node 2), m
         93     1.51640167236E+002                                                     F               0         Z-component position of node 31 (blade 2, node 2), m
         94     1.22271451950E+001                                                     F               0         X-component position of node 32 (blade 2, node 3), m
         95    -3.32207565308E+001                                                     F               0         Y-component position of node 32 (blade 2, node 3), m
         96     1.56637603760E+002                                                     F               0         Z-component position of node 32 (blade 2, node 3), m
         97     1.24484243393E+001                                                     F               0         X-component position of node 33 (blade 2, node 4), m
         98    -3.69322166443E+001                                                     F               0         Y-component position of node 33 (blade 2, node 4), m
         99     1.57702331543E+002                                                     F               0         Z-component position of node 33 (blade 2, node 4), m
        100     1.26697473526E+001                                                     F               0         X-component position of node 34 (blade 2, node 5), m
        101    -4.06443405151E+001                                                     F               0         Y-component position of node 34 (blade 2, node 5), m
        102     1.58767272949E+002                                                     F               0         Z-component position of node 34 (blade 2, node 5), m
        103     1.28910264969E+001                                                     F               0         X-component position of node 35 (blade 2, node 6), m
        104    -4.43558006287E+001                                                     F               0         Y-component position of node 35 (blade 2, node 6), m
        105     1.59832015991E+002                                                     F               0         Z-component position of node 35 (blade 2, node 6), m
        106     1.31123056412E+001                                                     F               0         X-component position of node 36 (blade 2, node 7), m
        107    -4.80672607422E+001                                                     F               0         Y-component position of node 36 (blade 2, node 7), m
        108     1.60896759033E+002                                                     F               0         Z-component position of node 36 (blade 2, node 7), m
        109     1.33336296082E+001                                                     F               0         X-component position of node 37 (blade 2, node 8), m
        110    -5.17793846130E+001                                                     F               0         Y-component position of node 37 (blade 2, node 8), m
        111     1.61961700439E+002                                                     F               0         Z-component position of node 37 (blade 2, node 8), m
        112     1.35549077988E+001                                                     F               0         X-component position of node 38 (blade 2, node 9), m
        113    -5.54908447266E+001                                                     F               0         Y-component position of node 38 (blade 2, node 9), m
        114     1.63026428223E+002                                                     F               0         Z-component position of node 38 (blade 2, node 9), m
        115     1.37761888504E+001                                                     F               0         X-component position of node 39 (blade 2, node 10), m
        116    -5.92022972107E+001                                                     F               0         Y-component position of node 39 (blade 2, node 10), m
        117     1.64091171265E+002                                                     F               0         Z-component position of node 39 (blade 2, node 10), m
        118     1.39974689484E+001                                                     F               0         X-component position of node 40 (blade 2, node 11), m
        119    -6.29137611389E+001                                                     F               0         Y-component position of node 40 (blade 2, node 11), m
        120     1.65155914307E+002                                                     F               0         Z-component position of node 40 (blade 2, node 11), m
        121     1.42187929153E+001                                                     F               0         X-component position of node 41 (blade 2, node 12), m
        122    -6.66258850098E+001                                                     F               0         Y-component position of node 41 (blade 2, node 12), m
        123     1.66220855713E+002                                                     F               0         Z-component position of node 41 (blade 2, node 12), m
        124     1.44400701523E+001                                                     F               0         X-component position of node 42 (blade 2, node 13), m
        125    -7.03373413086E+001                                                     F               0         Y-component position of node 42 (blade 2, node 13), m
        126     1.67285583496E+002                                                     F               0         Z-component position of node 42 (blade 2, node 13), m
        127     1.46613531113E+001                                                     F               0         X-component position of node 43 (blade 2, node 14), m
        128    -7.40487976074E+001                                                     F               0         Y-component position of node 43 (blade 2, node 14), m
        129     1.68350341797E+002                                                     F               0         Z-component position of node 43 (blade 2, node 14), m
        130     1.48826713562E+001                                                     F               0         X-component position of node 44 (blade 2, node 15), m
        131    -7.77609329224E+001                                                     F               0         Y-component position of node 44 (blade 2, node 15), m
        132     1.69415267944E+002                                                     F               0         Z-component position of node 44 (blade 2, node 15), m
        133     1.51039505005E+001                                                     F               0         X-component position of node 45 (blade 2, node 16), m
        134    -8.14723892212E+001                                                     F               0         Y-component position of node 45 (blade 2, node 16), m
        135     1.70479995728E+002                                                     F               0         Z-component position of node 45 (blade 2, node 16), m
        136     1.53252305984E+001                                                     F               0         X-component position of node 46 (blade 2, node 17), m
        137    -8.51838531494E+001                                                     F               0         Y-component position of node 46 (blade 2, node 17), m
        138     1.71544738770E+002                                                     F               0         Z-component position of node 46 (blade 2, node 17), m
        139     1.55465106964E+001                                                     F               0         X-component position of node 47 (blade 2, node 18), m
        140    -8.88953018188E+001                                                     F               0         Y-component position of node 47 (blade 2, node 18), m
        141     1.72609481812E+002                                                     F               0         Z-component position of node 47 (blade 2, node 18), m
        142     1.57678337097E+001                                                     F               0         X-component position of node 48 (blade 2, node 19), m
        143    -9.26074295044E+001                                                     F               0         Y-component position of node 48 (blade 2, node 19), m
        144     1.73674423218E+002                                                     F               0         Z-component position of node 48 (blade 2, node 19), m
        145     1.59891128540E+001                                                     F               0         X-component position of node 49 (blade 2, node 20), m
        146    -9.63188934326E+001                                                     F               0         Y-component position of node 49 (blade 2, node 20), m
        147     1.74739166260E+002                                                     F               0         Z-component position of node 49 (blade 2, node 20), m
        148     1.62103958130E+001                                                     F               0         X-component position of node 50 (blade 2, node 21), m
        149    -1.00030349731E+002                                                     F               0         Y-component position of node 50 (blade 2, node 21), m
        150     1.75803909302E+002                                                     F               0         Z-component position of node 50 (blade 2, node 21), m
        151     1.64317150116E+001                                                     F               0         X-component position of node 51 (blade 2, node 22), m
        152    -1.03742477417E+002                                                     F               0         Y-component position of node 51 (blade 2, node 22), m
        153     1.76868835449E+002                                                     F               0         Z-component position of node 51 (blade 2, node 22), m
        154     1.66529922485E+001                                                     F               0         X-component position of node 52 (blade 2, node 23), m
        155    -1.07453933716E+002                                                     F               0         Y-component position of node 52 (blade 2, node 23), m
        156     1.77933578491E+002                                                     F               0         Z-component position of node 52 (blade 2, node 23), m
        157     1.68742733002E+001                                                     F               0         X-component position of node 53 (blade 2, node 24), m
        158    -1.11165397644E+002                                                     F               0         Y-component position of node 53 (blade 2, node 24), m
        159     1.78998321533E+002                                                     F               0         Z-component position of node 53 (blade 2, node 24), m
        160     1.70955543518E+001                                                     F               0         X-component position of node 54 (blade 2, node 25), m
        161    -1.14876846313E+002                                                     F               0         Y-component position of node 54 (blade 2, node 25), m
        162     1.80063064575E+002                                                     F               0         Z-component position of node 54 (blade 2, node 25), m
        163     1.73168716431E+001                                                     F               0         X-component position of node 55 (blade 2, node 26), m
        164    -1.18588989258E+002                                                     F               0         Y-component position of node 55 (blade 2, node 26), m
        165     1.81127990723E+002                                                     F               0         Z-component position of node 55 (blade 2, node 26), m
        166     1.75381546021E+001                                                     F               0         X-component position of node 56 (blade 2, node 27), m
        167    -1.22300445557E+002                                                     F               0         Y-component position of node 56 (blade 2, node 27), m
        168     1.82192733765E+002                                                     F               0         Z-component position of node 56 (blade 2, node 27), m
        169     1.77257537842E+001                                                     F               0         X-component position of node 57 (blade 2, node 28), m
        170    -1.25446952820E+002                                                     F               0         Y-component position of node 57 (blade 2, node 28), m
        171     1.83095397949E+002                                                     F               0         Z-component position of node 57 (blade 2, node 28), m
        172     9.69609355927E+000                                                     F               0         X-component position of node 58 (blade 3, node 1), m