
Linearized model: Predictions were generated on 06-Feb-2024 at 08:44:08 using OpenFAST, compiled as a 64-bit application using single precision at commit v3.5.1
 linked with  NWTC Subroutine Library; ElastoDyn; InflowWind; AeroDyn; ServoDyn; HydroDyn; MAP++ (<1.20.10>, <Oct-20-2023>)

Description from the FAST input file: CCT-9 Campign 4 model. Input files to be run with OpenFAST 3.5.0. GitHub branch from Lu Wang (https://github.com/luwang00/openfast/tree/dev) compiled on March 7, 2023.

Simulation information:
   Simulation time:                  2506.5750 s
   Rotor Speed:                         0.8851 rad/s
   Azimuth:                             2.6896 rad
   Wind Speed:                         10.0000 m/s
   Number of continuous states:         0
   Number of discrete states:           0
   Number of constraint states:         0
   Number of inputs:                 1746
   Number of outputs:                   4
   Jacobians included in this file?    No

Order of inputs:
     Column   Operating Point                     Rotating Frame? Derivative Order Description
   ---------- ---------------                     --------------- ---------------- -----------
          1    1.391E+01                                 F               0         Tower X translation displacement, node 1, m
          2    8.562E-02                                 F               0         Tower Y translation displacement, node 1, m
          3   -1.841E-01                                 F               0         Tower Z translation displacement, node 1, m
          4    1.488E+01                                 F               0         Tower X translation displacement, node 2, m
          5    1.256E-01                                 F               0         Tower Y translation displacement, node 2, m
          6   -2.227E-01                                 F               0         Tower Z translation displacement, node 2, m
          7    1.588E+01                                 F               0         Tower X translation displacement, node 3, m
          8    1.663E-01                                 F               0         Tower Y translation displacement, node 3, m
          9   -2.630E-01                                 F               0         Tower Z translation displacement, node 3, m
         10    1.689E+01                                 F               0         Tower X translation displacement, node 4, m
         11    2.075E-01                                 F               0         Tower Y translation displacement, node 4, m
         12   -3.045E-01                                 F               0         Tower Z translation displacement, node 4, m
         13    1.791E+01                                 F               0         Tower X translation displacement, node 5, m
         14    2.491E-01                                 F               0         Tower Y translation displacement, node 5, m
         15   -3.470E-01                                 F               0         Tower Z translation displacement, node 5, m
         16    1.895E+01                                 F               0         Tower X translation displacement, node 6, m
         17    2.911E-01                                 F               0         Tower Y translation displacement, node 6, m
         18   -3.903E-01                                 F               0         Tower Z translation displacement, node 6, m
         19    1.999E+01                                 F               0         Tower X translation displacement, node 7, m
         20    3.333E-01                                 F               0         Tower Y translation displacement, node 7, m
         21   -4.343E-01                                 F               0         Tower Z translation displacement, node 7, m
         22    2.103E+01                                 F               0         Tower X translation displacement, node 8, m
         23    3.758E-01                                 F               0         Tower Y translation displacement, node 8, m
         24   -4.787E-01                                 F               0         Tower Z translation displacement, node 8, m
         25    2.208E+01                                 F               0         Tower X translation displacement, node 9, m
         26    4.185E-01                                 F               0         Tower Y translation displacement, node 9, m
         27   -5.235E-01                                 F               0         Tower Z translation displacement, node 9, m
         28    2.314E+01                                 F               0         Tower X translation displacement, node 10, m
         29    4.613E-01                                 F               0         Tower Y translation displacement, node 10, m
         30   -5.685E-01                                 F               0         Tower Z translation displacement, node 10, m
         31    2.419E+01                                 F               0         Tower X translation displacement, node 11, m
         32    5.042E-01                                 F               0         Tower Y translation displacement, node 11, m
         33   -6.137E-01                                 F               0         Tower Z translation displacement, node 11, m
         34    9.969E-01,  1.151E-03, -7.830E-02         F               0         Tower X orientation angle, node 1, rad
         35   -1.400E-03,  1.000E+00, -3.119E-03         F               0         Tower Y orientation angle, node 1, rad
         36    7.830E-02,  3.219E-03,  9.969E-01         F               0         Tower Z orientation angle, node 1, rad
         37    9.968E-01,  1.146E-03, -7.984E-02         F               0         Tower X orientation angle, node 2, rad
         38   -1.403E-03,  1.000E+00, -3.166E-03         F               0         Tower Y orientation angle, node 2, rad
         39    7.984E-02,  3.268E-03,  9.968E-01         F               0         Tower Z orientation angle, node 2, rad
         40    9.967E-01,  1.142E-03, -8.118E-02         F               0         Tower X orientation angle, node 3, rad
         41   -1.407E-03,  1.000E+00, -3.208E-03         F               0         Tower Y orientation angle, node 3, rad
         42    8.118E-02,  3.311E-03,  9.967E-01         F               0         Tower Z orientation angle, node 3, rad
         43    9.966E-01,  1.138E-03, -8.230E-02         F               0         Tower X orientation angle, node 4, rad
         44   -1.410E-03,  1.000E+00, -3.244E-03         F               0         Tower Y orientation angle, node 4, rad
         45    8.230E-02,  3.349E-03,  9.966E-01         F               0         Tower Z orientation angle, node 4, rad
         46    9.965E-01,  1.135E-03, -8.322E-02         F               0         Tower X orientation angle, node 5, rad
         47   -1.412E-03,  1.000E+00, -3.276E-03         F               0         Tower Y orientation angle, node 5, rad
         48    8.321E-02,  3.382E-03,  9.965E-01         F               0         Tower Z orientation angle, node 5, rad
         49    9.965E-01,  1.132E-03, -8.394E-02         F               0         Tower X orientation angle, node 6, rad
         50   -1.414E-03,  1.000E+00, -3.302E-03         F               0         Tower Y orientation angle, node 6, rad
         51    8.394E-02,  3.409E-03,  9.965E-01         F               0         Tower Z orientation angle, node 6, rad
         52    9.964E-01,  1.130E-03, -8.447E-02         F               0         Tower X orientation angle, node 7, rad
         53   -1.416E-03,  1.000E+00, -3.323E-03         F               0         Tower Y orientation angle, node 7, rad
         54    8.447E-02,  3.431E-03,  9.964E-01         F               0         Tower Z orientation angle, node 7, rad
         55    9.964E-01,  1.129E-03, -8.486E-02         F               0         Tower X orientation angle, node 8, rad
         56   -1.418E-03,  1.000E+00, -3.340E-03         F               0         Tower Y orientation angle, node 8, rad
         57    8.486E-02,  3.448E-03,  9.964E-01         F               0         Tower Z orientation angle, node 8, rad
         58    9.964E-01,  1.128E-03, -8.512E-02         F               0         Tower X orientation angle, node 9, rad
         59   -1.419E-03,  1.000E+00, -3.352E-03         F               0         Tower Y orientation angle, node 9, rad
         60    8.511E-02,  3.460E-03,  9.964E-01         F               0         Tower Z orientation angle, node 9, rad
         61    9.964E-01,  1.128E-03, -8.527E-02         F               0         Tower X orientation angle, node 10, rad
         62   -1.419E-03,  1.000E+00, -3.360E-03         F               0         Tower Y orientation angle, node 10, rad
         63    8.527E-02,  3.469E-03,  9.964E-01         F               0         Tower Z orientation angle, node 10, rad
         64    9.964E-01,  1.127E-03, -8.535E-02         F               0         Tower X orientation angle, node 11, rad
         65   -1.420E-03,  1.000E+00, -3.364E-03         F               0         Tower Y orientation angle, node 11, rad
         66    8.534E-02,  3.473E-03,  9.963E-01         F               0         Tower Z orientation angle, node 11, rad
         67    6.236E-04                                 F               0         Tower X translation velocity, node 1, m/s
         68    9.910E-04                                 F               0         Tower Y translation velocity, node 1, m/s
         69   -1.055E-03                                 F               0         Tower Z translation velocity, node 1, m/s
         70    8.485E-04                                 F               0         Tower X translation velocity, node 2, m/s
         71    1.433E-03                                 F               0         Tower Y translation velocity, node 2, m/s
         72   -1.074E-03                                 F               0         Tower Z translation velocity, node 2, m/s
         73    1.042E-03                                 F               0         Tower X translation velocity, node 3, m/s
         74    1.828E-03                                 F               0         Tower Y translation velocity, node 3, m/s
         75   -1.091E-03                                 F               0         Tower Z translation velocity, node 3, m/s
         76    1.208E-03                                 F               0         Tower X translation velocity, node 4, m/s
         77    2.187E-03                                 F               0         Tower Y translation velocity, node 4, m/s
         78   -1.106E-03                                 F               0         Tower Z translation velocity, node 4, m/s
         79    1.349E-03                                 F               0         Tower X translation velocity, node 5, m/s
         80    2.513E-03                                 F               0         Tower Y translation velocity, node 5, m/s
         81   -1.118E-03                                 F               0         Tower Z translation velocity, node 5, m/s
         82    1.467E-03                                 F               0         Tower X translation velocity, node 6, m/s
         83    2.812E-03                                 F               0         Tower Y translation velocity, node 6, m/s
         84   -1.129E-03                                 F               0         Tower Z translation velocity, node 6, m/s
         85    1.566E-03                                 F               0         Tower X translation velocity, node 7, m/s
         86    3.089E-03                                 F               0         Tower Y translation velocity, node 7, m/s
         87   -1.139E-03                                 F               0         Tower Z translation velocity, node 7, m/s
         88    1.646E-03                                 F               0         Tower X translation velocity, node 8, m/s
         89    3.347E-03                                 F               0         Tower Y translation velocity, node 8, m/s
         90   -1.146E-03                                 F               0         Tower Z translation velocity, node 8, m/s
         91    1.711E-03                                 F               0         Tower X translation velocity, node 9, m/s
         92    3.590E-03                                 F               0         Tower Y translation velocity, node 9, m/s
         93   -1.153E-03                                 F               0         Tower Z translation velocity, node 9, m/s
         94    1.765E-03                                 F               0         Tower X translation velocity, node 10, m/s
         95    3.822E-03                                 F               0         Tower Y translation velocity, node 10, m/s
         96   -1.158E-03                                 F               0         Tower Z translation velocity, node 10, m/s
         97    1.812E-03                                 F               0         Tower X translation velocity, node 11, m/s
         98    4.048E-03                                 F               0         Tower Y translation velocity, node 11, m/s
         99   -1.163E-03                                 F               0         Tower Z translation velocity, node 11, m/s
        100    2.490E+01                                 F               0         Hub X translation displacement, node 1, m
        101    5.193E-01                                 F               0         Hub Y translation displacement, node 1, m
        102    2.794E-01                                 F               0         Hub Z translation displacement, node 1, m
        103    9.820E-01,  7.582E-04, -1.890E-01         F               0         Hub X orientation angle, node 1, rad
        104    8.383E-02, -8.980E-01,  4.319E-01         F               0         Hub Y orientation angle, node 1, rad
        105   -1.694E-01, -4.400E-01, -8.819E-01         F               0         Hub Z orientation angle, node 1, rad
        106    8.691E-01                                 F               0         Hub X rotation velocity, node 1, rad/s
        107    6.743E-04                                 F               0         Hub Y rotation velocity, node 1, rad/s
        108   -1.674E-01                                 F               0         Hub Z rotation velocity, node 1, rad/s
        109    9.791E-01,  2.740E-02, -2.018E-01         F               0         Blade root 1 X orientation angle, node 1, rad
        110    1.129E-01, -8.976E-01,  4.261E-01         F               0         Blade root 1 Y orientation angle, node 1, rad
        111   -1.694E-01, -4.400E-01, -8.819E-01         F               0         Blade root 1 Z orientation angle, node 1, rad
        112    9.871E-01, -1.259E-03, -1.599E-01         F               0         Blade root 2 X orientation angle, node 1, rad
        113   -1.594E-01,  6.799E-02, -9.849E-01         F               0         Blade root 2 Y orientation angle, node 1, rad
        114    1.211E-02,  9.977E-01,  6.691E-02         F               0         Blade root 2 Z orientation angle, node 1, rad
        115    9.784E-01, -2.387E-02, -2.052E-01         F               0         Blade root 3 X orientation angle, node 1, rad
        116    1.339E-01,  8.297E-01,  5.419E-01         F               0         Blade root 3 Y orientation angle, node 1, rad
        117    1.573E-01, -5.577E-01,  8.150E-01         F               0         Blade root 3 Z orientation angle, node 1, rad
        118    2.338E+01                                 F               0         Blade 1 X translation displacement, node 1, m
        119   -1.918E+00                                 F               0         Blade 1 Y translation displacement, node 1, m
        120   -1.012E+01                                 F               0         Blade 1 Z translation displacement, node 1, m
        121    2.302E+01                                 F               0         Blade 1 X translation displacement, node 2, m
        122   -2.505E+00                                 F               0         Blade 1 Y translation displacement, node 2, m
        123   -1.262E+01                                 F               0         Blade 1 Z translation displacement, node 2, m
        124    1.804E+01                                 F               0         Blade 1 X translation displacement, node 3, m
        125   -1.049E+01                                 F               0         Blade 1 Y translation displacement, node 3, m
        126   -4.668E+01                                 F               0         Blade 1 Z translation displacement, node 3, m
        127    1.698E+01                                 F               0         Blade 1 X translation displacement, node 4, m
        128   -1.219E+01                                 F               0         Blade 1 Y translation displacement, node 4, m
        129   -5.394E+01                                 F               0         Blade 1 Z translation displacement, node 4, m
        130    1.592E+01                                 F               0         Blade 1 X translation displacement, node 5, m
        131   -1.389E+01                                 F               0         Blade 1 Y translation displacement, node 5, m
        132   -6.120E+01                                 F               0         Blade 1 Z translation displacement, node 5, m
        133    1.486E+01                                 F               0         Blade 1 X translation displacement, node 6, m
        134   -1.560E+01                                 F               0         Blade 1 Y translation displacement, node 6, m
        135   -6.845E+01                                 F               0         Blade 1 Z translation displacement, node 6, m
        136    1.380E+01                                 F               0         Blade 1 X translation displacement, node 7, m
        137   -1.730E+01                                 F               0         Blade 1 Y translation displacement, node 7, m
        138   -7.571E+01                                 F               0         Blade 1 Z translation displacement, node 7, m
        139    1.274E+01                                 F               0         Blade 1 X translation displacement, node 8, m
        140   -1.900E+01                                 F               0         Blade 1 Y translation displacement, node 8, m
        141   -8.297E+01                                 F               0         Blade 1 Z translation displacement, node 8, m
        142    1.168E+01                                 F               0         Blade 1 X translation displacement, node 9, m
        143   -2.070E+01                                 F               0         Blade 1 Y translation displacement, node 9, m
        144   -9.023E+01                                 F               0         Blade 1 Z translation displacement, node 9, m
        145    1.063E+01                                 F               0         Blade 1 X translation displacement, node 10, m
        146   -2.240E+01                                 F               0         Blade 1 Y translation displacement, node 10, m
        147   -9.748E+01                                 F               0         Blade 1 Z translation displacement, node 10, m
        148    9.566E+00                                 F               0         Blade 1 X translation displacement, node 11, m
        149   -2.410E+01                                 F               0         Blade 1 Y translation displacement, node 11, m
        150   -1.047E+02                                 F               0         Blade 1 Z translation displacement, node 11, m
        151    8.506E+00                                 F               0         Blade 1 X translation displacement, node 12, m
        152   -2.581E+01                                 F               0         Blade 1 Y translation displacement, node 12, m
        153   -1.120E+02                                 F               0         Blade 1 Z translation displacement, node 12, m
        154    7.447E+00                                 F               0         Blade 1 X translation displacement, node 13, m
        155   -2.751E+01                                 F               0         Blade 1 Y translation displacement, node 13, m
        156   -1.193E+02                                 F               0         Blade 1 Z translation displacement, node 13, m
        157    6.387E+00                                 F               0         Blade 1 X translation displacement, node 14, m
        158   -2.921E+01                                 F               0         Blade 1 Y translation displacement, node 14, m
        159   -1.265E+02                                 F               0         Blade 1 Z translation displacement, node 14, m
        160    5.327E+00                                 F               0         Blade 1 X translation displacement, node 15, m
        161   -3.091E+01                                 F               0         Blade 1 Y translation displacement, node 15, m
        162   -1.338E+02                                 F               0         Blade 1 Z translation displacement, node 15, m
        163    4.268E+00                                 F               0         Blade 1 X translation displacement, node 16, m
        164   -3.261E+01                                 F               0         Blade 1 Y translation displacement, node 16, m
        165   -1.410E+02                                 F               0         Blade 1 Z translation displacement, node 16, m
        166    3.208E+00                                 F               0         Blade 1 X translation displacement, node 17, m
        167   -3.431E+01                                 F               0         Blade 1 Y translation displacement, node 17, m
        168   -1.483E+02                                 F               0         Blade 1 Z translation displacement, node 17, m
        169    2.149E+00                                 F               0         Blade 1 X translation displacement, node 18, m
        170   -3.602E+01                                 F               0         Blade 1 Y translation displacement, node 18, m
        171   -1.555E+02                                 F               0         Blade 1 Z translation displacement, node 18, m
        172    1.089E+00                                 F               0         Blade 1 X translation displacement, node 19, m
        173   -3.772E+01                                 F               0         Blade 1 Y translation displacement, node 19, m
        174   -1.628E+02                                 F               0         Blade 1 Z translation displacement, node 19, m
        175    2.976E-02                                 F               0         Blade 1 X translation displacement, node 20, m
        176   -3.942E+01                                 F               0         Blade 1 Y translation displacement, node 20, m
        177   -1.701E+02                                 F               0         Blade 1 Z translation displacement, node 20, m
        178   -1.030E+00                                 F               0         Blade 1 X translation displacement, node 21, m
        179   -4.112E+01                                 F               0         Blade 1 Y translation displacement, node 21, m
        180   -1.773E+02                                 F               0         Blade 1 Z translation displacement, node 21, m
        181   -2.089E+00                                 F               0         Blade 1 X translation displacement, node 22, m
        182   -4.282E+01                                 F               0         Blade 1 Y translation displacement, node 22, m
        183   -1.846E+02                                 F               0         Blade 1 Z translation displacement, node 22, m
        184   -3.149E+00                                 F               0         Blade 1 X translation displacement, node 23, m
        185   -4.452E+01                                 F               0         Blade 1 Y translation displacement, node 23, m
        186   -1.918E+02                                 F               0         Blade 1 Z translation displacement, node 23, m
        187   -4.208E+00                                 F               0         Blade 1 X translation displacement, node 24, m
        188   -4.623E+01                                 F               0         Blade 1 Y translation displacement, node 24, m
        189   -1.991E+02                                 F               0         Blade 1 Z translation displacement, node 24, m
        190   -5.268E+00                                 F               0         Blade 1 X translation displacement, node 25, m
        191   -4.793E+01                                 F               0         Blade 1 Y translation displacement, node 25, m
        192   -2.063E+02                                 F               0         Blade 1 Z translation displacement, node 25, m
        193   -6.328E+00                                 F               0         Blade 1 X translation displacement, node 26, m
        194   -4.963E+01                                 F               0         Blade 1 Y translation displacement, node 26, m
        195   -2.136E+02                                 F               0         Blade 1 Z translation displacement, node 26, m
        196   -7.387E+00                                 F               0         Blade 1 X translation displacement, node 27, m
        197   -5.133E+01                                 F               0         Blade 1 Y translation displacement, node 27, m
        198   -2.209E+02                                 F               0         Blade 1 Z translation displacement, node 27, m
        199   -8.285E+00                                 F               0         Blade 1 X translation displacement, node 28, m
        200   -5.277E+01                                 F               0         Blade 1 Y translation displacement, node 28, m
        201   -2.270E+02                                 F               0         Blade 1 Z translation displacement, node 28, m
        202    8.198E-01,  4.337E-01, -3.739E-01         F               0         Blade 1 X orientation angle, node 1, rad
        203    5.470E-01, -7.863E-01,  2.872E-01         F               0         Blade 1 Y orientation angle, node 1, rad
        204   -1.694E-01, -4.400E-01, -8.819E-01         F               0         Blade 1 Z orientation angle, node 1, rad
        205    8.198E-01,  4.337E-01, -3.739E-01         F               0         Blade 1 X orientation angle, node 2, rad
        206    5.470E-01, -7.863E-01,  2.872E-01         F               0         Blade 1 Y orientation angle, node 2, rad
        207   -1.694E-01, -4.400E-01, -8.819E-01         F               0         Blade 1 Z orientation angle, node 2, rad
        208    9.261E-01,  2.350E-01, -2.951E-01         F               0         Blade 1 X orientation angle, node 3, rad
        209    3.371E-01, -8.667E-01,  3.676E-01         F               0         Blade 1 Y orientation angle, node 3, rad
        210   -1.694E-01, -4.400E-01, -8.819E-01         F               0         Blade 1 Z orientation angle, node 3, rad
        211    9.395E-01,  1.982E-01, -2.794E-01         F               0         Blade 1 X orientation angle, node 4, rad
        212    2.977E-01, -8.759E-01,  3.798E-01         F               0         Blade 1 Y orientation angle, node 4, rad
        213   -1.694E-01, -4.400E-01, -8.819E-01         F               0         Blade 1 Z orientation angle, node 4, rad
        214    9.489E-01,  1.690E-01, -2.666E-01         F               0         Blade 1 X orientation angle, node 5, rad
        215    2.664E-01, -8.820E-01,  3.888E-01         F               0         Blade 1 Y orientation angle, node 5, rad
        216   -1.694E-01, -4.400E-01, -8.819E-01         F               0         Blade 1 Z orientation angle, node 5, rad
        217    9.556E-01,  1.456E-01, -2.562E-01         F               0         Blade 1 X orientation angle, node 6, rad
        218    2.411E-01, -8.861E-01,  3.958E-01         F               0         Blade 1 Y orientation angle, node 6, rad
        219   -1.694E-01, -4.400E-01, -8.819E-01         F               0         Blade 1 Z orientation angle, node 6, rad
        220    9.606E-01,  1.262E-01, -2.475E-01         F               0         Blade 1 X orientation angle, node 7, rad
        221    2.202E-01, -8.891E-01,  4.013E-01         F               0         Blade 1 Y orientation angle, node 7, rad
        222   -1.694E-01, -4.400E-01, -8.819E-01         F               0         Blade 1 Z orientation angle, node 7, rad
        223    9.645E-01,  1.100E-01, -2.402E-01         F               0         Blade 1 X orientation angle, node 8, rad
        224    2.027E-01, -8.913E-01,  4.057E-01         F               0         Blade 1 Y orientation angle, node 8, rad
        225   -1.694E-01, -4.400E-01, -8.819E-01         F               0         Blade 1 Z orientation angle, node 8, rad
        226    9.675E-01,  9.634E-02, -2.339E-01         F               0         Blade 1 X orientation angle, node 9, rad
        227    1.879E-01, -8.928E-01,  4.093E-01         F               0         Blade 1 Y orientation angle, node 9, rad