
Linearized model: Predictions were generated on 13-Feb-2024 at 12:12:09 using OpenFAST, compiled as a 64-bit application using single precision at commit v3.5.1
 linked with  NWTC Subroutine Library; ElastoDyn; InflowWind; AeroDyn; ServoDyn; HydroDyn; MAP++ (<1.20.10>, <Oct-20-2023>)

Description from the FAST input file: CCT-9 Campign 4 model. Input files to be run with OpenFAST 3.5.0. GitHub branch from Lu Wang (https://github.com/luwang00/openfast/tree/dev) compiled on March 7, 2023.

Simulation information:
   Simulation time:                   777.2750 s
   Rotor Speed:                         0.7919 rad/s
   Azimuth:                             5.4164 rad
   Wind Speed:                         24.0000 m/s
   Number of continuous states:        22
   Number of discrete states:           0
   Number of constraint states:         0
   Number of inputs:                 1890
   Number of outputs:                  25
   Jacobians included in this file?    No

Order of continuous states:
   Row/Column Operating Point                                                   Rotating Frame? Derivative Order Description
   ---------- ---------------                                                   --------------- ---------------- -----------
          1     6.82692718506E+000                                                     F               2         Platform horizontal surge translation DOF (internal DOF index = DOF_Sg), m
          2    -8.22779297829E-001                                                     F               2         Platform horizontal sway translation DOF (internal DOF index = DOF_Sw), m
          3    -1.18361651897E-001                                                     F               2         Platform vertical heave translation DOF (internal DOF index = DOF_Hv), m
          4     5.43943643570E-002                                                     F               2         Platform roll tilt rotation DOF (internal DOF index = DOF_R), rad
          5     9.52620506287E-002                                                     F               2         Platform pitch tilt rotation DOF (internal DOF index = DOF_P), rad
          6    -9.26742423326E-003                                                     F               2         Platform yaw rotation DOF (internal DOF index = DOF_Y), rad
          7     5.28947234154E-001                                                     F               2         1st tower fore-aft bending mode DOF (internal DOF index = DOF_TFA1), m
          8     2.58156895638E-001                                                     F               2         1st tower side-to-side bending mode DOF (internal DOF index = DOF_TSS1), m
          9     1.51339406148E-003                                                     F               2         2nd tower fore-aft bending mode DOF (internal DOF index = DOF_TFA2), m
         10    -2.89553485345E-004                                                     F               2         2nd tower side-to-side bending mode DOF (internal DOF index = DOF_TSS2), m
         11     3.84556555748E+000                                                     F               2         Variable speed generator DOF (internal DOF index = DOF_GeAz), rad
         12     3.70545894839E-003                                                     F               2         First time derivative of Platform horizontal surge translation DOF (internal DOF index = DOF_Sg), m/s
         13     3.00275417976E-003                                                     F               2         First time derivative of Platform horizontal sway translation DOF (internal DOF index = DOF_Sw), m/s
         14    -5.12966746464E-003                                                     F               2         First time derivative of Platform vertical heave translation DOF (internal DOF index = DOF_Hv), m/s
         15    -1.02655671071E-004                                                     F               2         First time derivative of Platform roll tilt rotation DOF (internal DOF index = DOF_R), rad/s
         16     1.20475415315E-004                                                     F               2         First time derivative of Platform pitch tilt rotation DOF (internal DOF index = DOF_P), rad/s
         17     2.82196469925E-005                                                     F               2         First time derivative of Platform yaw rotation DOF (internal DOF index = DOF_Y), rad/s
         18    -3.06637361646E-002                                                     F               2         First time derivative of 1st tower fore-aft bending mode DOF (internal DOF index = DOF_TFA1), m/s
         19     1.19389491156E-002                                                     F               2         First time derivative of 1st tower side-to-side bending mode DOF (internal DOF index = DOF_TSS1), m/s
         20     2.82139313640E-004                                                     F               2         First time derivative of 2nd tower fore-aft bending mode DOF (internal DOF index = DOF_TFA2), m/s
         21     1.32365039462E-005                                                     F               2         First time derivative of 2nd tower side-to-side bending mode DOF (internal DOF index = DOF_TSS2), m/s
         22     7.91911780834E-001                                                     F               2         First time derivative of Variable speed generator DOF (internal DOF index = DOF_GeAz), rad/s

Order of continuous state derivatives:
   Row/Column Operating Point                                                   Rotating Frame? Derivative Order Description
   ---------- ---------------                                                   --------------- ---------------- -----------
          1     3.70545894839E-003                                                     F               2         First time derivative of Platform horizontal surge translation DOF (internal DOF index = DOF_Sg), m/s
          2     3.00275417976E-003                                                     F               2         First time derivative of Platform horizontal sway translation DOF (internal DOF index = DOF_Sw), m/s
          3    -5.12966746464E-003                                                     F               2         First time derivative of Platform vertical heave translation DOF (internal DOF index = DOF_Hv), m/s
          4    -1.02655671071E-004                                                     F               2         First time derivative of Platform roll tilt rotation DOF (internal DOF index = DOF_R), rad/s
          5     1.20475415315E-004                                                     F               2         First time derivative of Platform pitch tilt rotation DOF (internal DOF index = DOF_P), rad/s
          6     2.82196469925E-005                                                     F               2         First time derivative of Platform yaw rotation DOF (internal DOF index = DOF_Y), rad/s
          7    -3.06637361646E-002                                                     F               2         First time derivative of 1st tower fore-aft bending mode DOF (internal DOF index = DOF_TFA1), m/s
          8     1.19389491156E-002                                                     F               2         First time derivative of 1st tower side-to-side bending mode DOF (internal DOF index = DOF_TSS1), m/s
          9     2.82139313640E-004                                                     F               2         First time derivative of 2nd tower fore-aft bending mode DOF (internal DOF index = DOF_TFA2), m/s
         10     1.32365039462E-005                                                     F               2         First time derivative of 2nd tower side-to-side bending mode DOF (internal DOF index = DOF_TSS2), m/s
         11     7.91911780834E-001                                                     F               2         First time derivative of Variable speed generator DOF (internal DOF index = DOF_GeAz), rad/s
         12    -7.68577400595E-003                                                     F               2         First time derivative of First time derivative of Platform horizontal surge translation DOF (internal DOF index = DOF_Sg), m/s/s
         13     4.59939893335E-003                                                     F               2         First time derivative of First time derivative of Platform horizontal sway translation DOF (internal DOF index = DOF_Sw), m/s/s
         14     3.35499178618E-004                                                     F               2         First time derivative of First time derivative of Platform vertical heave translation DOF (internal DOF index = DOF_Hv), m/s/s
         15    -2.72396049695E-004                                                     F               2         First time derivative of First time derivative of Platform roll tilt rotation DOF (internal DOF index = DOF_R), rad/s/s
         16    -4.83626266941E-004                                                     F               2         First time derivative of First time derivative of Platform pitch tilt rotation DOF (internal DOF index = DOF_P), rad/s/s
         17    -2.89013623842E-005                                                     F               2         First time derivative of First time derivative of Platform yaw rotation DOF (internal DOF index = DOF_Y), rad/s/s
         18     1.10093832016E-001                                                     F               2         First time derivative of First time derivative of 1st tower fore-aft bending mode DOF (internal DOF index = DOF_TFA1), m/s/s
         19     5.38738481700E-002                                                     F               2         First time derivative of First time derivative of 1st tower side-to-side bending mode DOF (internal DOF index = DOF_TSS1), m/s/s
         20     6.09602313489E-004                                                     F               2         First time derivative of First time derivative of 2nd tower fore-aft bending mode DOF (internal DOF index = DOF_TFA2), m/s/s
         21    -4.60668670712E-004                                                     F               2         First time derivative of First time derivative of 2nd tower side-to-side bending mode DOF (internal DOF index = DOF_TSS2), m/s/s
         22    -1.24382064678E-003                                                     F               2         First time derivative of First time derivative of Variable speed generator DOF (internal DOF index = DOF_GeAz), rad/s/s

Order of inputs:
     Column   Operating Point                                                   Rotating Frame? Derivative Order Description
   ---------- ---------------                                                   --------------- ---------------- -----------
          1     3.55205047607E+002                                                     F               0         Blade 1 X force, node 1, N
          2     2.10291080475E+001                                                     F               0         Blade 1 Y force, node 1, N
          3    -9.66987915039E+001                                                     F               0         Blade 1 Z force, node 1, N
          4     1.37878710938E+003                                                     F               0         Blade 1 X force, node 2, N
          5     1.47489147186E+001                                                     F               0         Blade 1 Y force, node 2, N
          6    -3.03779418945E+002                                                     F               0         Blade 1 Z force, node 2, N
          7     1.50839453125E+003                                                     F               0         Blade 1 X force, node 3, N
          8    -1.29595046997E+002                                                     F               0         Blade 1 Y force, node 3, N
          9    -1.76376510620E+002                                                     F               0         Blade 1 Z force, node 3, N
         10     1.78099182129E+003                                                     F               0         Blade 1 X force, node 4, N
         11    -2.74187469482E+002                                                     F               0         Blade 1 Y force, node 4, N
         12    -7.85748214722E+001                                                     F               0         Blade 1 Z force, node 4, N
         13     2.05360400391E+003                                                     F               0         Blade 1 X force, node 5, N
         14    -4.18783355713E+002                                                     F               0         Blade 1 Y force, node 5, N
         15     1.92274284363E+001                                                     F               0         Blade 1 Z force, node 5, N
         16     2.32620434570E+003                                                     F               0         Blade 1 X force, node 6, N
         17    -5.63377380371E+002                                                     F               0         Blade 1 Y force, node 6, N
         18     1.17030181885E+002                                                     F               0         Blade 1 Z force, node 6, N
         19     2.59878735352E+003                                                     F               0         Blade 1 X force, node 7, N
         20    -7.07966674805E+002                                                     F               0         Blade 1 Y force, node 7, N
         21     2.14831527710E+002                                                     F               0         Blade 1 Z force, node 7, N
         22     2.87138452148E+003                                                     F               0         Blade 1 X force, node 8, N
         23    -8.52559082031E+002                                                     F               0         Blade 1 Y force, node 8, N
         24     3.12633300781E+002                                                     F               0         Blade 1 Z force, node 8, N
         25     3.14398193359E+003                                                     F               0         Blade 1 X force, node 9, N
         26    -9.97151611328E+002                                                     F               0         Blade 1 Y force, node 9, N
         27     4.10434967041E+002                                                     F               0         Blade 1 Z force, node 9, N
         28     3.41657934570E+003                                                     F               0         Blade 1 X force, node 10, N
         29    -1.14174401855E+003                                                     F               0         Blade 1 Y force, node 10, N
         30     5.08236663818E+002                                                     F               0         Blade 1 Z force, node 10, N
         31     3.68917651367E+003                                                     F               0         Blade 1 X force, node 11, N
         32    -1.28633642578E+003                                                     F               0         Blade 1 Y force, node 11, N
         33     6.06038391113E+002                                                     F               0         Blade 1 Z force, node 11, N
         34     3.96180151367E+003                                                     F               0         Blade 1 X force, node 12, N
         35    -1.43093908691E+003                                                     F               0         Blade 1 Y force, node 12, N
         36     7.03845153809E+002                                                     F               0         Blade 1 Z force, node 12, N
         37     4.23440136719E+003                                                     F               0         Blade 1 X force, node 13, N
         38    -1.57553295898E+003                                                     F               0         Blade 1 Y force, node 13, N
         39     8.01647949219E+002                                                     F               0         Blade 1 Z force, node 13, N
         40     4.50697265625E+003                                                     F               0         Blade 1 X force, node 14, N
         41    -1.72011584473E+003                                                     F               0         Blade 1 Y force, node 14, N
         42     8.99444763184E+002                                                     F               0         Blade 1 Z force, node 14, N
         43     4.77960156250E+003                                                     F               0         Blade 1 X force, node 15, N
         44    -1.86472058105E+003                                                     F               0         Blade 1 Y force, node 15, N
         45     9.97253234863E+002                                                     F               0         Blade 1 Z force, node 15, N
         46     5.05216601562E+003                                                     F               0         Blade 1 X force, node 16, N
         47    -2.00929980469E+003                                                     F               0         Blade 1 Y force, node 16, N
         48     1.09504772949E+003                                                     F               0         Blade 1 Z force, node 16, N
         49     6.15320751953E+003                                                     F               0         Blade 1 X force, node 17, N
         50    -2.48455932617E+003                                                     F               0         Blade 1 Y force, node 17, N
         51     1.37368249512E+003                                                     F               0         Blade 1 Z force, node 17, N
         52     4.52213281250E+003                                                     F               0         Blade 1 X force, node 18, N
         53    -1.80339184570E+003                                                     F               0         Blade 1 Y force, node 18, N
         54     9.85399047852E+002                                                     F               0         Blade 1 Z force, node 18, N
         55     5.31160253906E+003                                                     F               0         Blade 1 X force, node 19, N
         56    -2.07102905273E+003                                                     F               0         Blade 1 Y force, node 19, N
         57     1.10691906738E+003                                                     F               0         Blade 1 Z force, node 19, N
         58     4.34150097656E+003                                                     F               0         Blade 1 X force, node 20, N
         59    -1.65395532227E+003                                                     F               0         Blade 1 Y force, node 20, N
         60     8.63203796387E+002                                                     F               0         Blade 1 Z force, node 20, N
         61     6.13780517578E+003                                                     F               0         Blade 1 X force, node 21, N
         62    -2.29294458008E+003                                                     F               0         Blade 1 Y force, node 21, N
         63     1.17183642578E+003                                                     F               0         Blade 1 Z force, node 21, N
         64     5.24272363281E+003                                                     F               0         Blade 1 X force, node 22, N
         65    -1.95373535156E+003                                                     F               0         Blade 1 Y force, node 22, N
         66     9.95780395508E+002                                                     F               0         Blade 1 Z force, node 22, N
         67     5.23263232422E+003                                                     F               0         Blade 1 X force, node 23, N
         68    -1.94844812012E+003                                                     F               0         Blade 1 Y force, node 23, N
         69     9.92230163574E+002                                                     F               0         Blade 1 Z force, node 23, N
         70     5.32146826172E+003                                                     F               0         Blade 1 X force, node 24, N
         71    -1.98162048340E+003                                                     F               0         Blade 1 Y force, node 24, N
         72     1.00917486572E+003                                                     F               0         Blade 1 Z force, node 24, N
         73     5.34406787109E+003                                                     F               0         Blade 1 X force, node 25, N
         74    -1.99648083496E+003                                                     F               0         Blade 1 Y force, node 25, N
         75     1.02035754395E+003                                                     F               0         Blade 1 Z force, node 25, N
         76     5.40363232422E+003                                                     F               0         Blade 1 X force, node 26, N
         77    -2.02662854004E+003                                                     F               0         Blade 1 Y force, node 26, N
         78     1.04017968750E+003                                                     F               0         Blade 1 Z force, node 26, N
         79     6.39160400391E+003                                                     F               0         Blade 1 X force, node 27, N
         80    -2.41051904297E+003                                                     F               0         Blade 1 Y force, node 27, N
         81     1.24465014648E+003                                                     F               0         Blade 1 Z force, node 27, N
         82     4.93845507812E+003                                                     F               0         Blade 1 X force, node 28, N
         83    -1.89804357910E+003                                                     F               0         Blade 1 Y force, node 28, N
         84     9.99734191895E+002                                                     F               0         Blade 1 Z force, node 28, N
         85     6.37020361328E+003                                                     F               0         Blade 1 X force, node 29, N
         86    -2.49452563477E+003                                                     F               0         Blade 1 Y force, node 29, N
         87     1.33902282715E+003                                                     F               0         Blade 1 Z force, node 29, N
         88     5.68515576172E+003                                                     F               0         Blade 1 X force, node 30, N
         89    -2.26165136719E+003                                                     F               0         Blade 1 Y force, node 30, N
         90     1.23289453125E+003                                                     F               0         Blade 1 Z force, node 30, N
         91     8.53858300781E+003                                                     F               0         Blade 1 X force, node 31, N
         92    -3.42275195312E+003                                                     F               0         Blade 1 Y force, node 31, N
         93     1.87947546387E+003                                                     F               0         Blade 1 Z force, node 31, N
         94     7.59693798828E+003                                                     F               0         Blade 1 X force, node 32, N
         95    -3.01850610352E+003                                                     F               0         Blade 1 Y force, node 32, N
         96     1.64354418945E+003                                                     F               0         Blade 1 Z force, node 32, N
         97     7.85431396484E+003                                                     F               0         Blade 1 X force, node 33, N
         98    -3.09227026367E+003                                                     F               0         Blade 1 Y force, node 33, N
         99     1.66872534180E+003                                                     F               0         Blade 1 Z force, node 33, N
        100     8.08103906250E+003                                                     F               0         Blade 1 X force, node 34, N
        101    -3.15013354492E+003                                                     F               0         Blade 1 Y force, node 34, N
        102     1.68329223633E+003                                                     F               0         Blade 1 Z force, node 34, N
        103     8.17711572266E+003                                                     F               0         Blade 1 X force, node 35, N
        104    -3.14123510742E+003                                                     F               0         Blade 1 Y force, node 35, N
        105     1.65370141602E+003                                                     F               0         Blade 1 Z force, node 35, N
        106     8.23836523438E+003                                                     F               0         Blade 1 X force, node 36, N
        107    -3.11481469727E+003                                                     F               0         Blade 1 Y force, node 36, N
        108     1.61263342285E+003                                                     F               0         Blade 1 Z force, node 36, N
        109     9.70060449219E+003                                                     F               0         Blade 1 X force, node 37, N
        110    -3.60546044922E+003                                                     F               0         Blade 1 Y force, node 37, N
        111     1.83228894043E+003                                                     F               0         Blade 1 Z force, node 37, N
        112     6.94296289062E+003                                                     F               0         Blade 1 X force, node 38, N
        113    -2.53287646484E+003                                                     F               0         Blade 1 Y force, node 38, N
        114     1.26042993164E+003                                                     F               0         Blade 1 Z force, node 38, N
        115     8.37875878906E+003                                                     F               0         Blade 1 X force, node 39, N
        116    -3.00606250000E+003                                                     F               0         Blade 1 Y force, node 39, N
        117     1.46692370605E+003                                                     F               0         Blade 1 Z force, node 39, N
        118     7.03688183594E+003                                                     F               0         Blade 1 X force, node 40, N
        119    -2.48227636719E+003                                                     F               0         Blade 1 Y force, node 40, N
        120     1.18666101074E+003                                                     F               0         Blade 1 Z force, node 40, N
        121     9.81249121094E+003                                                     F               0         Blade 1 X force, node 41, N
        122    -3.39131176758E+003                                                     F               0         Blade 1 Y force, node 41, N
        123     1.57973950195E+003                                                     F               0         Blade 1 Z force, node 41, N
        124     8.44410644531E+003                                                     F               0         Blade 1 X force, node 42, N
        125    -2.85531811523E+003                                                     F               0         Blade 1 Y force, node 42, N
        126     1.29194946289E+003                                                     F               0         Blade 1 Z force, node 42, N
        127     8.45011328125E+003                                                     F               0         Blade 1 X force, node 43, N
        128    -2.79781689453E+003                                                     F               0         Blade 1 Y force, node 43, N
        129     1.22915783691E+003                                                     F               0         Blade 1 Z force, node 43, N
        130     8.48924023438E+003                                                     F               0         Blade 1 X force, node 44, N
        131    -2.75157006836E+003                                                     F               0         Blade 1 Y force, node 44, N
        132     1.17149255371E+003                                                     F               0         Blade 1 Z force, node 44, N
        133     8.34862792969E+003                                                     F               0         Blade 1 X force, node 45, N
        134    -2.64993823242E+003                                                     F               0         Blade 1 Y force, node 45, N