
Linearized model: Predictions were generated on 07-Feb-2024 at 11:38:03 using OpenFAST, compiled as a 64-bit application using single precision at commit v3.5.1
 linked with  NWTC Subroutine Library; ElastoDyn; InflowWind; AeroDyn; ServoDyn; HydroDyn; MAP++ (<1.20.10>, <Oct-20-2023>)

Description from the FAST input file: CCT-9 Campign 4 model. Input files to be run with OpenFAST 3.5.0. GitHub branch from Lu Wang (https://github.com/luwang00/openfast/tree/dev) compiled on March 7, 2023.

Simulation information:
   Simulation time:                  1006.2250 s
   Rotor Speed:                         1.0412 rad/s
   Azimuth:                             1.2400 rad
   Wind Speed:                         12.0000 m/s
   Number of continuous states:        22
   Number of discrete states:           0
   Number of constraint states:         0
   Number of inputs:                 3988
   Number of outputs:                  41
   Jacobians included in this file?    No

Order of continuous states:
   Row/Column Operating Point                     Rotating Frame? Derivative Order Description
   ---------- ---------------                     --------------- ---------------- -----------
          1    1.229E+01                                 F               2         ED Platform horizontal surge translation DOF (internal DOF index = DOF_Sg), m
          2   -2.191E-01                                 F               2         ED Platform horizontal sway translation DOF (internal DOF index = DOF_Sw), m
          3   -2.534E-01                                 F               2         ED Platform vertical heave translation DOF (internal DOF index = DOF_Hv), m
          4    5.319E-02                                 F               2         ED Platform roll tilt rotation DOF (internal DOF index = DOF_R), rad
          5    1.568E-01                                 F               2         ED Platform pitch tilt rotation DOF (internal DOF index = DOF_P), rad
          6    9.714E-03                                 F               2         ED Platform yaw rotation DOF (internal DOF index = DOF_Y), rad
          7    1.083E+00                                 F               2         ED 1st tower fore-aft bending mode DOF (internal DOF index = DOF_TFA1), m
          8    2.301E-01                                 F               2         ED 1st tower side-to-side bending mode DOF (internal DOF index = DOF_TSS1), m
          9    1.606E-03                                 F               2         ED 2nd tower fore-aft bending mode DOF (internal DOF index = DOF_TFA2), m
         10    9.688E-05                                 F               2         ED 2nd tower side-to-side bending mode DOF (internal DOF index = DOF_TSS2), m
         11    5.952E+00                                 F               2         ED Variable speed generator DOF (internal DOF index = DOF_GeAz), rad
         12   -2.239E-04                                 F               2         ED First time derivative of Platform horizontal surge translation DOF (internal DOF index = DOF_Sg), m/s
         13    4.587E-04                                 F               2         ED First time derivative of Platform horizontal sway translation DOF (internal DOF index = DOF_Sw), m/s
         14    4.598E-03                                 F               2         ED First time derivative of Platform vertical heave translation DOF (internal DOF index = DOF_Hv), m/s
         15    5.308E-04                                 F               2         ED First time derivative of Platform roll tilt rotation DOF (internal DOF index = DOF_R), rad/s
         16   -9.170E-05                                 F               2         ED First time derivative of Platform pitch tilt rotation DOF (internal DOF index = DOF_P), rad/s
         17    1.528E-04                                 F               2         ED First time derivative of Platform yaw rotation DOF (internal DOF index = DOF_Y), rad/s
         18   -2.664E-03                                 F               2         ED First time derivative of 1st tower fore-aft bending mode DOF (internal DOF index = DOF_TFA1), m/s
         19    5.227E-03                                 F               2         ED First time derivative of 1st tower side-to-side bending mode DOF (internal DOF index = DOF_TSS1), m/s
         20   -8.246E-06                                 F               2         ED First time derivative of 2nd tower fore-aft bending mode DOF (internal DOF index = DOF_TFA2), m/s
         21   -9.250E-07                                 F               2         ED First time derivative of 2nd tower side-to-side bending mode DOF (internal DOF index = DOF_TSS2), m/s
         22    1.041E+00                                 F               2         ED First time derivative of Variable speed generator DOF (internal DOF index = DOF_GeAz), rad/s

Order of continuous state derivatives:
   Row/Column Operating Point                     Rotating Frame? Derivative Order Description
   ---------- ---------------                     --------------- ---------------- -----------
          1   -2.239E-04                                 F               2         First time derivative of ED Platform horizontal surge translation DOF (internal DOF index = DOF_Sg), m/s
          2    4.587E-04                                 F               2         First time derivative of ED Platform horizontal sway translation DOF (internal DOF index = DOF_Sw), m/s
          3    4.598E-03                                 F               2         First time derivative of ED Platform vertical heave translation DOF (internal DOF index = DOF_Hv), m/s
          4    5.308E-04                                 F               2         First time derivative of ED Platform roll tilt rotation DOF (internal DOF index = DOF_R), rad/s
          5   -9.170E-05                                 F               2         First time derivative of ED Platform pitch tilt rotation DOF (internal DOF index = DOF_P), rad/s
          6    1.528E-04                                 F               2         First time derivative of ED Platform yaw rotation DOF (internal DOF index = DOF_Y), rad/s
          7   -2.664E-03                                 F               2         First time derivative of ED 1st tower fore-aft bending mode DOF (internal DOF index = DOF_TFA1), m/s
          8    5.227E-03                                 F               2         First time derivative of ED 1st tower side-to-side bending mode DOF (internal DOF index = DOF_TSS1), m/s
          9   -8.246E-06                                 F               2         First time derivative of ED 2nd tower fore-aft bending mode DOF (internal DOF index = DOF_TFA2), m/s
         10   -9.250E-07                                 F               2         First time derivative of ED 2nd tower side-to-side bending mode DOF (internal DOF index = DOF_TSS2), m/s
         11    1.041E+00                                 F               2         First time derivative of ED Variable speed generator DOF (internal DOF index = DOF_GeAz), rad/s
         12    2.939E-04                                 F               2         First time derivative of ED First time derivative of Platform horizontal surge translation DOF (internal DOF index = DOF_Sg), m/s/s
         13   -2.639E-04                                 F               2         First time derivative of ED First time derivative of Platform horizontal sway translation DOF (internal DOF index = DOF_Sw), m/s/s
         14    1.153E-03                                 F               2         First time derivative of ED First time derivative of Platform vertical heave translation DOF (internal DOF index = DOF_Hv), m/s/s
         15   -3.873E-04                                 F               2         First time derivative of ED First time derivative of Platform roll tilt rotation DOF (internal DOF index = DOF_R), rad/s/s
         16   -5.585E-06                                 F               2         First time derivative of ED First time derivative of Platform pitch tilt rotation DOF (internal DOF index = DOF_P), rad/s/s
         17    1.411E-04                                 F               2         First time derivative of ED First time derivative of Platform yaw rotation DOF (internal DOF index = DOF_Y), rad/s/s
         18    2.621E-03                                 F               2         First time derivative of ED First time derivative of 1st tower fore-aft bending mode DOF (internal DOF index = DOF_TFA1), m/s/s
         19   -4.230E-03                                 F               2         First time derivative of ED First time derivative of 1st tower side-to-side bending mode DOF (internal DOF index = DOF_TSS1), m/s/s
         20    1.959E-05                                 F               2         First time derivative of ED First time derivative of 2nd tower fore-aft bending mode DOF (internal DOF index = DOF_TFA2), m/s/s
         21   -8.096E-06                                 F               2         First time derivative of ED First time derivative of 2nd tower side-to-side bending mode DOF (internal DOF index = DOF_TSS2), m/s/s
         22    6.173E-04                                 F               2         First time derivative of ED First time derivative of Variable speed generator DOF (internal DOF index = DOF_GeAz), rad/s/s

Order of inputs:
     Column   Operating Point                     Rotating Frame? Derivative Order Description
   ---------- ---------------                     --------------- ---------------- -----------
          1   -1.080E+01                                 F               0         IfW X-component position of node 1 (hub), m
          2    0.000E+00                                 F               0         IfW Y-component position of node 1 (hub), m
          3    1.497E+02                                 F               0         IfW Z-component position of node 1 (hub), m
          4    2.653E+01                                 F               0         IfW X-component position of node 2 (blade 1, node 1), m
          5   -1.368E+01                                 F               0         IfW Y-component position of node 2 (blade 1, node 1), m
          6    1.505E+02                                 F               0         IfW Z-component position of node 2 (blade 1, node 1), m
          7    2.665E+01                                 F               0         IfW X-component position of node 3 (blade 1, node 2), m
          8   -1.496E+01                                 F               0         IfW Y-component position of node 3 (blade 1, node 2), m
          9    1.509E+02                                 F               0         IfW Z-component position of node 3 (blade 1, node 2), m
         10    2.833E+01                                 F               0         IfW X-component position of node 4 (blade 1, node 3), m
         11   -3.241E+01                                 F               0         IfW Y-component position of node 4 (blade 1, node 3), m
         12    1.556E+02                                 F               0         IfW Z-component position of node 4 (blade 1, node 3), m
         13    2.869E+01                                 F               0         IfW X-component position of node 5 (blade 1, node 4), m
         14   -3.613E+01                                 F               0         IfW Y-component position of node 5 (blade 1, node 4), m
         15    1.566E+02                                 F               0         IfW Z-component position of node 5 (blade 1, node 4), m
         16    2.904E+01                                 F               0         IfW X-component position of node 6 (blade 1, node 5), m
         17   -3.985E+01                                 F               0         IfW Y-component position of node 6 (blade 1, node 5), m
         18    1.576E+02                                 F               0         IfW Z-component position of node 6 (blade 1, node 5), m
         19    2.940E+01                                 F               0         IfW X-component position of node 7 (blade 1, node 6), m
         20   -4.357E+01                                 F               0         IfW Y-component position of node 7 (blade 1, node 6), m
         21    1.586E+02                                 F               0         IfW Z-component position of node 7 (blade 1, node 6), m
         22    2.976E+01                                 F               0         IfW X-component position of node 8 (blade 1, node 7), m
         23   -4.729E+01                                 F               0         IfW Y-component position of node 8 (blade 1, node 7), m
         24    1.596E+02                                 F               0         IfW Z-component position of node 8 (blade 1, node 7), m
         25    3.011E+01                                 F               0         IfW X-component position of node 9 (blade 1, node 8), m
         26   -5.101E+01                                 F               0         IfW Y-component position of node 9 (blade 1, node 8), m
         27    1.606E+02                                 F               0         IfW Z-component position of node 9 (blade 1, node 8), m
         28    3.047E+01                                 F               0         IfW X-component position of node 10 (blade 1, node 9), m
         29   -5.472E+01                                 F               0         IfW Y-component position of node 10 (blade 1, node 9), m
         30    1.616E+02                                 F               0         IfW Z-component position of node 10 (blade 1, node 9), m
         31    3.083E+01                                 F               0         IfW X-component position of node 11 (blade 1, node 10), m
         32   -5.844E+01                                 F               0         IfW Y-component position of node 11 (blade 1, node 10), m
         33    1.626E+02                                 F               0         IfW Z-component position of node 11 (blade 1, node 10), m
         34    3.119E+01                                 F               0         IfW X-component position of node 12 (blade 1, node 11), m
         35   -6.216E+01                                 F               0         IfW Y-component position of node 12 (blade 1, node 11), m
         36    1.636E+02                                 F               0         IfW Z-component position of node 12 (blade 1, node 11), m
         37    3.154E+01                                 F               0         IfW X-component position of node 13 (blade 1, node 12), m
         38   -6.588E+01                                 F               0         IfW Y-component position of node 13 (blade 1, node 12), m
         39    1.646E+02                                 F               0         IfW Z-component position of node 13 (blade 1, node 12), m
         40    3.190E+01                                 F               0         IfW X-component position of node 14 (blade 1, node 13), m
         41   -6.960E+01                                 F               0         IfW Y-component position of node 14 (blade 1, node 13), m
         42    1.656E+02                                 F               0         IfW Z-component position of node 14 (blade 1, node 13), m
         43    3.226E+01                                 F               0         IfW X-component position of node 15 (blade 1, node 14), m
         44   -7.331E+01                                 F               0         IfW Y-component position of node 15 (blade 1, node 14), m
         45    1.666E+02                                 F               0         IfW Z-component position of node 15 (blade 1, node 14), m
         46    3.262E+01                                 F               0         IfW X-component position of node 16 (blade 1, node 15), m
         47   -7.703E+01                                 F               0         IfW Y-component position of node 16 (blade 1, node 15), m
         48    1.676E+02                                 F               0         IfW Z-component position of node 16 (blade 1, node 15), m
         49    3.297E+01                                 F               0         IfW X-component position of node 17 (blade 1, node 16), m
         50   -8.075E+01                                 F               0         IfW Y-component position of node 17 (blade 1, node 16), m
         51    1.686E+02                                 F               0         IfW Z-component position of node 17 (blade 1, node 16), m
         52    3.333E+01                                 F               0         IfW X-component position of node 18 (blade 1, node 17), m
         53   -8.447E+01                                 F               0         IfW Y-component position of node 18 (blade 1, node 17), m
         54    1.696E+02                                 F               0         IfW Z-component position of node 18 (blade 1, node 17), m
         55    3.369E+01                                 F               0         IfW X-component position of node 19 (blade 1, node 18), m
         56   -8.819E+01                                 F               0         IfW Y-component position of node 19 (blade 1, node 18), m
         57    1.706E+02                                 F               0         IfW Z-component position of node 19 (blade 1, node 18), m
         58    3.405E+01                                 F               0         IfW X-component position of node 20 (blade 1, node 19), m
         59   -9.191E+01                                 F               0         IfW Y-component position of node 20 (blade 1, node 19), m
         60    1.716E+02                                 F               0         IfW Z-component position of node 20 (blade 1, node 19), m
         61    3.440E+01                                 F               0         IfW X-component position of node 21 (blade 1, node 20), m
         62   -9.562E+01                                 F               0         IfW Y-component position of node 21 (blade 1, node 20), m
         63    1.726E+02                                 F               0         IfW Z-component position of node 21 (blade 1, node 20), m
         64    3.476E+01                                 F               0         IfW X-component position of node 22 (blade 1, node 21), m
         65   -9.934E+01                                 F               0         IfW Y-component position of node 22 (blade 1, node 21), m
         66    1.736E+02                                 F               0         IfW Z-component position of node 22 (blade 1, node 21), m
         67    3.512E+01                                 F               0         IfW X-component position of node 23 (blade 1, node 22), m
         68   -1.031E+02                                 F               0         IfW Y-component position of node 23 (blade 1, node 22), m
         69    1.746E+02                                 F               0         IfW Z-component position of node 23 (blade 1, node 22), m
         70    3.548E+01                                 F               0         IfW X-component position of node 24 (blade 1, node 23), m
         71   -1.068E+02                                 F               0         IfW Y-component position of node 24 (blade 1, node 23), m
         72    1.756E+02                                 F               0         IfW Z-component position of node 24 (blade 1, node 23), m
         73    3.583E+01                                 F               0         IfW X-component position of node 25 (blade 1, node 24), m
         74   -1.105E+02                                 F               0         IfW Y-component position of node 25 (blade 1, node 24), m
         75    1.766E+02                                 F               0         IfW Z-component position of node 25 (blade 1, node 24), m
         76    3.619E+01                                 F               0         IfW X-component position of node 26 (blade 1, node 25), m
         77   -1.142E+02                                 F               0         IfW Y-component position of node 26 (blade 1, node 25), m
         78    1.776E+02                                 F               0         IfW Z-component position of node 26 (blade 1, node 25), m
         79    3.655E+01                                 F               0         IfW X-component position of node 27 (blade 1, node 26), m
         80   -1.179E+02                                 F               0         IfW Y-component position of node 27 (blade 1, node 26), m
         81    1.786E+02                                 F               0         IfW Z-component position of node 27 (blade 1, node 26), m
         82    3.690E+01                                 F               0         IfW X-component position of node 28 (blade 1, node 27), m
         83   -1.217E+02                                 F               0         IfW Y-component position of node 28 (blade 1, node 27), m
         84    1.796E+02                                 F               0         IfW Z-component position of node 28 (blade 1, node 27), m
         85    3.721E+01                                 F               0         IfW X-component position of node 29 (blade 1, node 28), m
         86   -1.248E+02                                 F               0         IfW Y-component position of node 29 (blade 1, node 28), m
         87    1.805E+02                                 F               0         IfW Z-component position of node 29 (blade 1, node 28), m
         88    2.454E+01                                 F               0         IfW X-component position of node 30 (blade 2, node 1), m
         89   -7.009E+00                                 F               0         IfW Y-component position of node 30 (blade 2, node 1), m
         90    1.439E+02                                 F               0         IfW Z-component position of node 30 (blade 2, node 1), m
         91    2.419E+01                                 F               0         IfW X-component position of node 31 (blade 2, node 2), m
         92   -6.685E+00                                 F               0         IfW Y-component position of node 31 (blade 2, node 2), m
         93    1.427E+02                                 F               0         IfW Z-component position of node 31 (blade 2, node 2), m
         94    1.936E+01                                 F               0         IfW X-component position of node 32 (blade 2, node 3), m
         95   -2.277E+00                                 F               0         IfW Y-component position of node 32 (blade 2, node 3), m
         96    1.257E+02                                 F               0         IfW Z-component position of node 32 (blade 2, node 3), m
         97    1.834E+01                                 F               0         IfW X-component position of node 33 (blade 2, node 4), m
         98   -1.337E+00                                 F               0         IfW Y-component position of node 33 (blade 2, node 4), m
         99    1.221E+02                                 F               0         IfW Z-component position of node 33 (blade 2, node 4), m
        100    1.731E+01                                 F               0         IfW X-component position of node 34 (blade 2, node 5), m
        101   -3.979E-01                                 F               0         IfW Y-component position of node 34 (blade 2, node 5), m
        102    1.185E+02                                 F               0         IfW Z-component position of node 34 (blade 2, node 5), m
        103    1.628E+01                                 F               0         IfW X-component position of node 35 (blade 2, node 6), m
        104    5.414E-01                                 F               0         IfW Y-component position of node 35 (blade 2, node 6), m
        105    1.149E+02                                 F               0         IfW Z-component position of node 35 (blade 2, node 6), m
        106    1.525E+01                                 F               0         IfW X-component position of node 36 (blade 2, node 7), m
        107    1.481E+00                                 F               0         IfW Y-component position of node 36 (blade 2, node 7), m
        108    1.113E+02                                 F               0         IfW Z-component position of node 36 (blade 2, node 7), m
        109    1.423E+01                                 F               0         IfW X-component position of node 37 (blade 2, node 8), m
        110    2.420E+00                                 F               0         IfW Y-component position of node 37 (blade 2, node 8), m
        111    1.077E+02                                 F               0         IfW Z-component position of node 37 (blade 2, node 8), m
        112    1.320E+01                                 F               0         IfW X-component position of node 38 (blade 2, node 9), m
        113    3.359E+00                                 F               0         IfW Y-component position of node 38 (blade 2, node 9), m
        114    1.041E+02                                 F               0         IfW Z-component position of node 38 (blade 2, node 9), m
        115    1.217E+01                                 F               0         IfW X-component position of node 39 (blade 2, node 10), m
        116    4.299E+00                                 F               0         IfW Y-component position of node 39 (blade 2, node 10), m
        117    1.005E+02                                 F               0         IfW Z-component position of node 39 (blade 2, node 10), m
        118    1.114E+01                                 F               0         IfW X-component position of node 40 (blade 2, node 11), m
        119    5.238E+00                                 F               0         IfW Y-component position of node 40 (blade 2, node 11), m
        120    9.686E+01                                 F               0         IfW Z-component position of node 40 (blade 2, node 11), m
        121    1.011E+01                                 F               0         IfW X-component position of node 41 (blade 2, node 12), m
        122    6.177E+00                                 F               0         IfW Y-component position of node 41 (blade 2, node 12), m
        123    9.325E+01                                 F               0         IfW Z-component position of node 41 (blade 2, node 12), m
        124    9.087E+00                                 F               0         IfW X-component position of node 42 (blade 2, node 13), m
        125    7.116E+00                                 F               0         IfW Y-component position of node 42 (blade 2, node 13), m
        126    8.964E+01                                 F               0         IfW Z-component position of node 42 (blade 2, node 13), m
        127    8.059E+00                                 F               0         IfW X-component position of node 43 (blade 2, node 14), m
        128    8.056E+00                                 F               0         IfW Y-component position of node 43 (blade 2, node 14), m
        129    8.604E+01                                 F               0         IfW Z-component position of node 43 (blade 2, node 14), m
        130    7.031E+00                                 F               0         IfW X-component position of node 44 (blade 2, node 15), m
        131    8.995E+00                                 F               0         IfW Y-component position of node 44 (blade 2, node 15), m
        132    8.243E+01                                 F               0         IfW Z-component position of node 44 (blade 2, node 15), m
        133    6.004E+00                                 F               0         IfW X-component position of node 45 (blade 2, node 16), m
        134    9.934E+00                                 F               0         IfW Y-component position of node 45 (blade 2, node 16), m
        135    7.882E+01                                 F               0         IfW Z-component position of node 45 (blade 2, node 16), m
        136    4.976E+00                                 F               0         IfW X-component position of node 46 (blade 2, node 17), m
        137    1.087E+01                                 F               0         IfW Y-component position of node 46 (blade 2, node 17), m
        138    7.521E+01                                 F               0         IfW Z-component position of node 46 (blade 2, node 17), m
        139    3.948E+00                                 F               0         IfW X-component position of node 47 (blade 2, node 18), m
        140    1.181E+01                                 F               0         IfW Y-component position of node 47 (blade 2, node 18), m
        141    7.160E+01                                 F               0         IfW Z-component position of node 47 (blade 2, node 18), m
        142    2.920E+00                                 F               0         IfW X-component position of node 48 (blade 2, node 19), m
        143    1.275E+01                                 F               0         IfW Y-component position of node 48 (blade 2, node 19), m
        144    6.799E+01                                 F               0         IfW Z-component position of node 48 (blade 2, node 19), m