
Linearized model: Predictions were generated on 12-Jan-2024 at 09:28:28 using OpenFAST, compiled as a 64-bit application using single precision at commit v3.5.1
 linked with  NWTC Subroutine Library; ElastoDyn; InflowWind; AeroDyn; ServoDyn; HydroDyn; MAP++ (<1.20.10>, <Oct-20-2023>)

Description from the FAST input file: CCT-9 Campign 4 model. Input files to be run with OpenFAST 3.5.0. GitHub branch from Lu Wang (https://github.com/luwang00/openfast/tree/dev) compiled on March 7, 2023.

Simulation information:
   Simulation time:                   501.2500 s
   Rotor Speed:                         0.8768 rad/s
   Azimuth:                             4.9527 rad
   Wind Speed:                         10.0000 m/s
   Number of continuous states:        22
   Number of discrete states:           0
   Number of constraint states:         0
   Number of inputs:                 1890
   Number of outputs:                  38
   Jacobians included in this file?    No

Order of continuous states:
   Row/Column Operating Point                     Rotating Frame? Derivative Order Description
   ---------- ---------------                     --------------- ---------------- -----------
          1    8.849E+00                                 F               2         Platform horizontal surge translation DOF (internal DOF index = DOF_Sg), m
          2   -3.689E-01                                 F               2         Platform horizontal sway translation DOF (internal DOF index = DOF_Sw), m
          3   -1.793E-01                                 F               2         Platform vertical heave translation DOF (internal DOF index = DOF_Hv), m
          4    4.756E-02                                 F               2         Platform roll tilt rotation DOF (internal DOF index = DOF_R), rad
          5    1.189E-01                                 F               2         Platform pitch tilt rotation DOF (internal DOF index = DOF_P), rad
          6    7.008E-03                                 F               2         Platform yaw rotation DOF (internal DOF index = DOF_Y), rad
          7    7.545E-01                                 F               2         1st tower fore-aft bending mode DOF (internal DOF index = DOF_TFA1), m
          8    1.921E-01                                 F               2         1st tower side-to-side bending mode DOF (internal DOF index = DOF_TSS1), m
          9    1.531E-03                                 F               2         2nd tower fore-aft bending mode DOF (internal DOF index = DOF_TFA2), m
         10    8.393E-05                                 F               2         2nd tower side-to-side bending mode DOF (internal DOF index = DOF_TSS2), m
         11    3.382E+00                                 F               2         Variable speed generator DOF (internal DOF index = DOF_GeAz), rad
         12   -3.591E-03                                 F               2         First time derivative of Platform horizontal surge translation DOF (internal DOF index = DOF_Sg), m/s
         13    2.078E-03                                 F               2         First time derivative of Platform horizontal sway translation DOF (internal DOF index = DOF_Sw), m/s
         14   -8.435E-04                                 F               2         First time derivative of Platform vertical heave translation DOF (internal DOF index = DOF_Hv), m/s
         15    3.801E-04                                 F               2         First time derivative of Platform roll tilt rotation DOF (internal DOF index = DOF_R), rad/s
         16   -1.323E-05                                 F               2         First time derivative of Platform pitch tilt rotation DOF (internal DOF index = DOF_P), rad/s
         17   -2.073E-05                                 F               2         First time derivative of Platform yaw rotation DOF (internal DOF index = DOF_Y), rad/s
         18   -2.947E-03                                 F               2         First time derivative of 1st tower fore-aft bending mode DOF (internal DOF index = DOF_TFA1), m/s
         19    3.882E-03                                 F               2         First time derivative of 1st tower side-to-side bending mode DOF (internal DOF index = DOF_TSS1), m/s
         20   -2.317E-06                                 F               2         First time derivative of 2nd tower fore-aft bending mode DOF (internal DOF index = DOF_TFA2), m/s
         21    1.931E-06                                 F               2         First time derivative of 2nd tower side-to-side bending mode DOF (internal DOF index = DOF_TSS2), m/s
         22    8.768E-01                                 F               2         First time derivative of Variable speed generator DOF (internal DOF index = DOF_GeAz), rad/s

Order of continuous state derivatives:
   Row/Column Operating Point                     Rotating Frame? Derivative Order Description
   ---------- ---------------                     --------------- ---------------- -----------
          1   -3.591E-03                                 F               2         First time derivative of Platform horizontal surge translation DOF (internal DOF index = DOF_Sg), m/s
          2    2.078E-03                                 F               2         First time derivative of Platform horizontal sway translation DOF (internal DOF index = DOF_Sw), m/s
          3   -8.435E-04                                 F               2         First time derivative of Platform vertical heave translation DOF (internal DOF index = DOF_Hv), m/s
          4    3.801E-04                                 F               2         First time derivative of Platform roll tilt rotation DOF (internal DOF index = DOF_R), rad/s
          5   -1.323E-05                                 F               2         First time derivative of Platform pitch tilt rotation DOF (internal DOF index = DOF_P), rad/s
          6   -2.073E-05                                 F               2         First time derivative of Platform yaw rotation DOF (internal DOF index = DOF_Y), rad/s
          7   -2.947E-03                                 F               2         First time derivative of 1st tower fore-aft bending mode DOF (internal DOF index = DOF_TFA1), m/s
          8    3.882E-03                                 F               2         First time derivative of 1st tower side-to-side bending mode DOF (internal DOF index = DOF_TSS1), m/s
          9   -2.317E-06                                 F               2         First time derivative of 2nd tower fore-aft bending mode DOF (internal DOF index = DOF_TFA2), m/s
         10    1.931E-06                                 F               2         First time derivative of 2nd tower side-to-side bending mode DOF (internal DOF index = DOF_TSS2), m/s
         11    8.768E-01                                 F               2         First time derivative of Variable speed generator DOF (internal DOF index = DOF_GeAz), rad/s
         12   -1.200E-04                                 F               2         First time derivative of First time derivative of Platform horizontal surge translation DOF (internal DOF index = DOF_Sg), m/s/s
         13   -4.367E-04                                 F               2         First time derivative of First time derivative of Platform horizontal sway translation DOF (internal DOF index = DOF_Sw), m/s/s
         14    1.254E-03                                 F               2         First time derivative of First time derivative of Platform vertical heave translation DOF (internal DOF index = DOF_Hv), m/s/s
         15   -9.693E-05                                 F               2         First time derivative of First time derivative of Platform roll tilt rotation DOF (internal DOF index = DOF_R), rad/s/s
         16    6.214E-06                                 F               2         First time derivative of First time derivative of Platform pitch tilt rotation DOF (internal DOF index = DOF_P), rad/s/s
         17    2.884E-05                                 F               2         First time derivative of First time derivative of Platform yaw rotation DOF (internal DOF index = DOF_Y), rad/s/s
         18   -2.838E-03                                 F               2         First time derivative of First time derivative of 1st tower fore-aft bending mode DOF (internal DOF index = DOF_TFA1), m/s/s
         19   -8.764E-03                                 F               2         First time derivative of First time derivative of 1st tower side-to-side bending mode DOF (internal DOF index = DOF_TSS1), m/s/s
         20   -9.765E-06                                 F               2         First time derivative of First time derivative of 2nd tower fore-aft bending mode DOF (internal DOF index = DOF_TFA2), m/s/s
         21    3.604E-06                                 F               2         First time derivative of First time derivative of 2nd tower side-to-side bending mode DOF (internal DOF index = DOF_TSS2), m/s/s
         22    1.485E-04                                 F               2         First time derivative of First time derivative of Variable speed generator DOF (internal DOF index = DOF_GeAz), rad/s/s

Order of inputs:
     Column   Operating Point                     Rotating Frame? Derivative Order Description
   ---------- ---------------                     --------------- ---------------- -----------
          1    5.716E+01                                 F               0         Blade 1 X force, node 1, N
          2    1.120E+01                                 F               0         Blade 1 Y force, node 1, N
          3   -4.878E+01                                 F               0         Blade 1 Z force, node 1, N
          4    2.720E+02                                 F               0         Blade 1 X force, node 2, N
          5    2.579E+01                                 F               0         Blade 1 Y force, node 2, N
          6   -1.379E+02                                 F               0         Blade 1 Z force, node 2, N
          7    3.930E+02                                 F               0         Blade 1 X force, node 3, N
          8    1.129E+01                                 F               0         Blade 1 Y force, node 3, N
          9   -1.102E+02                                 F               0         Blade 1 Z force, node 3, N
         10    5.431E+02                                 F               0         Blade 1 X force, node 4, N
         11   -4.491E-01                                 F               0         Blade 1 Y force, node 4, N
         12   -9.736E+01                                 F               0         Blade 1 Z force, node 4, N
         13    6.933E+02                                 F               0         Blade 1 X force, node 5, N
         14   -1.219E+01                                 F               0         Blade 1 Y force, node 5, N
         15   -8.449E+01                                 F               0         Blade 1 Z force, node 5, N
         16    8.435E+02                                 F               0         Blade 1 X force, node 6, N
         17   -2.393E+01                                 F               0         Blade 1 Y force, node 6, N
         18   -7.161E+01                                 F               0         Blade 1 Z force, node 6, N
         19    9.937E+02                                 F               0         Blade 1 X force, node 7, N
         20   -3.567E+01                                 F               0         Blade 1 Y force, node 7, N
         21   -5.874E+01                                 F               0         Blade 1 Z force, node 7, N
         22    1.144E+03                                 F               0         Blade 1 X force, node 8, N
         23   -4.741E+01                                 F               0         Blade 1 Y force, node 8, N
         24   -4.587E+01                                 F               0         Blade 1 Z force, node 8, N
         25    1.294E+03                                 F               0         Blade 1 X force, node 9, N
         26   -5.915E+01                                 F               0         Blade 1 Y force, node 9, N
         27   -3.300E+01                                 F               0         Blade 1 Z force, node 9, N
         28    1.444E+03                                 F               0         Blade 1 X force, node 10, N
         29   -7.089E+01                                 F               0         Blade 1 Y force, node 10, N
         30   -2.013E+01                                 F               0         Blade 1 Z force, node 10, N
         31    1.594E+03                                 F               0         Blade 1 X force, node 11, N
         32   -8.263E+01                                 F               0         Blade 1 Y force, node 11, N
         33   -7.255E+00                                 F               0         Blade 1 Z force, node 11, N
         34    1.745E+03                                 F               0         Blade 1 X force, node 12, N
         35   -9.437E+01                                 F               0         Blade 1 Y force, node 12, N
         36    5.617E+00                                 F               0         Blade 1 Z force, node 12, N
         37    1.895E+03                                 F               0         Blade 1 X force, node 13, N
         38   -1.061E+02                                 F               0         Blade 1 Y force, node 13, N
         39    1.849E+01                                 F               0         Blade 1 Z force, node 13, N
         40    2.045E+03                                 F               0         Blade 1 X force, node 14, N
         41   -1.179E+02                                 F               0         Blade 1 Y force, node 14, N
         42    3.136E+01                                 F               0         Blade 1 Z force, node 14, N
         43    2.195E+03                                 F               0         Blade 1 X force, node 15, N
         44   -1.296E+02                                 F               0         Blade 1 Y force, node 15, N
         45    4.423E+01                                 F               0         Blade 1 Z force, node 15, N
         46    2.345E+03                                 F               0         Blade 1 X force, node 16, N
         47   -1.413E+02                                 F               0         Blade 1 Y force, node 16, N
         48    5.710E+01                                 F               0         Blade 1 Z force, node 16, N
         49    2.893E+03                                 F               0         Blade 1 X force, node 17, N
         50   -1.766E+02                                 F               0         Blade 1 Y force, node 17, N
         51    7.806E+01                                 F               0         Blade 1 Z force, node 17, N
         52    2.207E+03                                 F               0         Blade 1 X force, node 18, N
         53   -1.287E+02                                 F               0         Blade 1 Y force, node 18, N
         54    3.882E+01                                 F               0         Blade 1 Z force, node 18, N
         55    2.704E+03                                 F               0         Blade 1 X force, node 19, N
         56   -1.479E+02                                 F               0         Blade 1 Y force, node 19, N
         57    1.439E+01                                 F               0         Blade 1 Z force, node 19, N
         58    2.302E+03                                 F               0         Blade 1 X force, node 20, N
         59   -1.183E+02                                 F               0         Blade 1 Y force, node 20, N
         60   -1.392E+01                                 F               0         Blade 1 Z force, node 20, N
         61    3.394E+03                                 F               0         Blade 1 X force, node 21, N
         62   -1.619E+02                                 F               0         Blade 1 Y force, node 21, N
         63   -6.335E+01                                 F               0         Blade 1 Z force, node 21, N
         64    2.990E+03                                 F               0         Blade 1 X force, node 22, N
         65   -1.322E+02                                 F               0         Blade 1 Y force, node 22, N
         66   -9.152E+01                                 F               0         Blade 1 Z force, node 22, N
         67    3.066E+03                                 F               0         Blade 1 X force, node 23, N
         68   -1.262E+02                                 F               0         Blade 1 Y force, node 23, N
         69   -1.259E+02                                 F               0         Blade 1 Z force, node 23, N
         70    3.197E+03                                 F               0         Blade 1 X force, node 24, N
         71   -1.224E+02                                 F               0         Blade 1 Y force, node 24, N
         72   -1.628E+02                                 F               0         Blade 1 Z force, node 24, N
         73    3.272E+03                                 F               0         Blade 1 X force, node 25, N
         74   -1.165E+02                                 F               0         Blade 1 Y force, node 25, N
         75   -1.968E+02                                 F               0         Blade 1 Z force, node 25, N
         76    3.365E+03                                 F               0         Blade 1 X force, node 26, N
         77   -1.113E+02                                 F               0         Blade 1 Y force, node 26, N
         78   -2.316E+02                                 F               0         Blade 1 Z force, node 26, N
         79    4.028E+03                                 F               0         Blade 1 X force, node 27, N
         80   -1.230E+02                                 F               0         Blade 1 Y force, node 27, N
         81   -3.122E+02                                 F               0         Blade 1 Z force, node 27, N
         82    2.983E+03                                 F               0         Blade 1 X force, node 28, N
         83   -8.406E+01                                 F               0         Blade 1 Y force, node 28, N
         84   -2.553E+02                                 F               0         Blade 1 Z force, node 28, N
         85    3.646E+03                                 F               0         Blade 1 X force, node 29, N
         86   -9.583E+01                                 F               0         Blade 1 Y force, node 29, N
         87   -3.357E+02                                 F               0         Blade 1 Z force, node 29, N
         88    3.100E+03                                 F               0         Blade 1 X force, node 30, N
         89   -7.587E+01                                 F               0         Blade 1 Y force, node 30, N
         90   -3.045E+02                                 F               0         Blade 1 Z force, node 30, N
         91    4.474E+03                                 F               0         Blade 1 X force, node 31, N
         92   -1.005E+02                                 F               0         Blade 1 Y force, node 31, N
         93   -4.705E+02                                 F               0         Blade 1 Z force, node 31, N
         94    3.927E+03                                 F               0         Blade 1 X force, node 32, N
         95   -8.055E+01                                 F               0         Blade 1 Y force, node 32, N
         96   -4.392E+02                                 F               0         Blade 1 Z force, node 32, N
         97    4.020E+03                                 F               0         Blade 1 X force, node 33, N
         98   -7.548E+01                                 F               0         Blade 1 Y force, node 33, N
         99   -4.735E+02                                 F               0         Blade 1 Z force, node 33, N
        100    4.114E+03                                 F               0         Blade 1 X force, node 34, N
        101   -7.043E+01                                 F               0         Blade 1 Y force, node 34, N
        102   -5.079E+02                                 F               0         Blade 1 Z force, node 34, N
        103    4.208E+03                                 F               0         Blade 1 X force, node 35, N
        104   -6.542E+01                                 F               0         Blade 1 Y force, node 35, N
        105   -5.422E+02                                 F               0         Blade 1 Z force, node 35, N
        106    4.301E+03                                 F               0         Blade 1 X force, node 36, N
        107   -6.041E+01                                 F               0         Blade 1 Y force, node 36, N
        108   -5.763E+02                                 F               0         Blade 1 Z force, node 36, N
        109    5.142E+03                                 F               0         Blade 1 X force, node 37, N
        110   -6.435E+01                                 F               0         Blade 1 Y force, node 37, N
        111   -7.158E+02                                 F               0         Blade 1 Z force, node 37, N
        112    3.743E+03                                 F               0         Blade 1 X force, node 38, N
        113   -4.148E+01                                 F               0         Blade 1 Y force, node 38, N
        114   -5.394E+02                                 F               0         Blade 1 Z force, node 38, N
        115    4.584E+03                                 F               0         Blade 1 X force, node 39, N
        116   -4.550E+01                                 F               0         Blade 1 Y force, node 39, N
        117   -6.789E+02                                 F               0         Blade 1 Z force, node 39, N
        118    3.907E+03                                 F               0         Blade 1 X force, node 40, N
        119   -3.439E+01                                 F               0         Blade 1 Y force, node 40, N
        120   -5.936E+02                                 F               0         Blade 1 Z force, node 40, N
        121    5.546E+03                                 F               0         Blade 1 X force, node 41, N
        122   -4.179E+01                                 F               0         Blade 1 Y force, node 41, N
        123   -8.667E+02                                 F               0         Blade 1 Z force, node 41, N
        124    4.867E+03                                 F               0         Blade 1 X force, node 42, N
        125   -3.069E+01                                 F               0         Blade 1 Y force, node 42, N
        126   -7.811E+02                                 F               0         Blade 1 Z force, node 42, N
        127    4.961E+03                                 F               0         Blade 1 X force, node 43, N
        128   -2.575E+01                                 F               0         Blade 1 Y force, node 43, N
        129   -8.151E+02                                 F               0         Blade 1 Z force, node 43, N
        130    5.081E+03                                 F               0         Blade 1 X force, node 44, N
        131   -2.092E+01                                 F               0         Blade 1 Y force, node 44, N
        132   -8.535E+02                                 F               0         Blade 1 Z force, node 44, N
        133    5.122E+03                                 F               0         Blade 1 X force, node 45, N
        134   -1.582E+01                                 F               0         Blade 1 Y force, node 45, N
        135   -8.784E+02                                 F               0         Blade 1 Z force, node 45, N
        136    5.243E+03                                 F               0         Blade 1 X force, node 46, N
        137   -1.104E+01                                 F               0         Blade 1 Y force, node 46, N
        138   -9.168E+02                                 F               0         Blade 1 Z force, node 46, N
        139    6.273E+03                                 F               0         Blade 1 X force, node 47, N
        140   -6.837E+00                                 F               0         Blade 1 Y force, node 47, N
        141   -1.119E+03                                 F               0         Blade 1 Z force, node 47, N
        142    4.495E+03                                 F               0         Blade 1 X force, node 48, N
        143   -5.825E-01                                 F               0         Blade 1 Y force, node 48, N
        144   -8.164E+02                                 F               0         Blade 1 Z force, node 48, N
        145    5.524E+03                                 F               0         Blade 1 X force, node 49, N
        146    3.602E+00                                 F               0         Blade 1 Y force, node 49, N
        147   -1.018E+03                                 F               0         Blade 1 Z force, node 49, N
        148    4.725E+03                                 F               0         Blade 1 X force, node 50, N
        149    6.708E+00                                 F               0         Blade 1 Y force, node 50, N
        150   -8.833E+02                                 F               0         Blade 1 Z force, node 50, N
        151    6.606E+03                                 F               0         Blade 1 X force, node 51, N
        152    1.510E+01                                 F               0         Blade 1 Y force, node 51, N
        153   -1.255E+03                                 F               0         Blade 1 Z force, node 51, N
        154    5.808E+03                                 F               0         Blade 1 X force, node 52, N
        155    1.816E+01                                 F               0         Blade 1 Y force, node 52, N
        156   -1.120E+03                                 F               0         Blade 1 Z force, node 52, N
        157    5.904E+03                                 F               0         Blade 1 X force, node 53, N
        158    2.299E+01                                 F               0         Blade 1 Y force, node 53, N
        159   -1.154E+03                                 F               0         Blade 1 Z force, node 53, N
        160    6.065E+03                                 F               0         Blade 1 X force, node 54, N
        161    2.814E+01                                 F               0         Blade 1 Y force, node 54, N
        162   -1.201E+03                                 F               0         Blade 1 Z force, node 54, N
        163    6.029E+03                                 F               0         Blade 1 X force, node 55, N
        164    3.231E+01                                 F               0         Blade 1 Y force, node 55, N
        165   -1.208E+03                                 F               0         Blade 1 Z force, node 55, N
        166    6.190E+03                                 F               0         Blade 1 X force, node 56, N
        167    3.745E+01                                 F               0         Blade 1 Y force, node 56, N
        168   -1.255E+03                                 F               0         Blade 1 Z force, node 56, N
        169    7.422E+03                                 F               0         Blade 1 X force, node 57, N
        170    5.026E+01                                 F               0         Blade 1 Y force, node 57, N
        171   -1.524E+03                                 F               0         Blade 1 Z force, node 57, N
        172    5.243E+03                                 F               0         Blade 1 X force, node 58, N
        173    3.909E+01                                 F               0         Blade 1 Y force, node 58, N
        174   -1.089E+03                                 F               0         Blade 1 Z force, node 58, N
        175    6.476E+03                                 F               0         Blade 1 X force, node 59, N
        176    5.189E+01                                 F               0         Blade 1 Y force, node 59, N
        177   -1.357E+03                                 F               0         Blade 1 Z force, node 59, N
        178    5.565E+03                                 F               0         Blade 1 X force, node 60, N
        179    4.768E+01                                 F               0         Blade 1 Y force, node 60, N
        180   -1.177E+03                                 F               0         Blade 1 Z force, node 60, N
        181    7.672E+03                                 F               0         Blade 1 X force, node 61, N
        182    7.053E+01                                 F               0         Blade 1 Y force, node 61, N
        183   -1.639E+03                                 F               0         Blade 1 Z force, node 61, N
        184    6.760E+03                                 F               0         Blade 1 X force, node 62, N