
Linearized model: Predictions were generated on 13-Feb-2024 at 11:29:37 using OpenFAST, compiled as a 64-bit application using single precision at commit v3.5.1
 linked with  NWTC Subroutine Library; ElastoDyn; InflowWind; AeroDyn; ServoDyn; HydroDyn; MAP++ (<1.20.10>, <Oct-20-2023>)

Description from the FAST input file: CCT-9 Campign 4 model. Input files to be run with OpenFAST 3.5.0. GitHub branch from Lu Wang (https://github.com/luwang00/openfast/tree/dev) compiled on March 7, 2023.

Simulation information:
   Simulation time:                  1210.8250 s
   Rotor Speed:                         0.7917 rad/s
   Azimuth:                             0.0001 rad
   Wind Speed:                         16.0000 m/s
   Number of continuous states:        14
   Number of discrete states:           0
   Number of constraint states:         0
   Number of inputs:                 1890
   Number of outputs:                  25
   Jacobians included in this file?    No

Order of continuous states:
   Row/Column Operating Point                                                   Rotating Frame? Derivative Order Description
   ---------- ---------------                                                   --------------- ---------------- -----------
          1     8.64532184601E+000                                                     F               2         Platform horizontal surge translation DOF (internal DOF index = DOF_Sg), m
          2    -6.19939327240E-001                                                     F               2         Platform horizontal sway translation DOF (internal DOF index = DOF_Sw), m
          3    -1.32006332278E-001                                                     F               2         Platform vertical heave translation DOF (internal DOF index = DOF_Hv), m
          4     5.17460145056E-002                                                     F               2         Platform roll tilt rotation DOF (internal DOF index = DOF_R), rad
          5     1.13015837967E-001                                                     F               2         Platform pitch tilt rotation DOF (internal DOF index = DOF_P), rad
          6     5.16551022884E-004                                                     F               2         Platform yaw rotation DOF (internal DOF index = DOF_Y), rad
          7     4.71246337891E+000                                                     F               2         Variable speed generator DOF (internal DOF index = DOF_GeAz), rad
          8     8.00026245997E-005                                                     F               2         First time derivative of Platform horizontal surge translation DOF (internal DOF index = DOF_Sg), m/s
          9     4.36671922216E-004                                                     F               2         First time derivative of Platform horizontal sway translation DOF (internal DOF index = DOF_Sw), m/s
         10     3.41886631213E-003                                                     F               2         First time derivative of Platform vertical heave translation DOF (internal DOF index = DOF_Hv), m/s
         11    -3.59346522600E-005                                                     F               2         First time derivative of Platform roll tilt rotation DOF (internal DOF index = DOF_R), rad/s
         12     9.20808997762E-006                                                     F               2         First time derivative of Platform pitch tilt rotation DOF (internal DOF index = DOF_P), rad/s
         13    -1.85280612186E-006                                                     F               2         First time derivative of Platform yaw rotation DOF (internal DOF index = DOF_Y), rad/s
         14     7.91688084602E-001                                                     F               2         First time derivative of Variable speed generator DOF (internal DOF index = DOF_GeAz), rad/s

Order of continuous state derivatives:
   Row/Column Operating Point                                                   Rotating Frame? Derivative Order Description
   ---------- ---------------                                                   --------------- ---------------- -----------
          1     8.00026245997E-005                                                     F               2         First time derivative of Platform horizontal surge translation DOF (internal DOF index = DOF_Sg), m/s
          2     4.36671922216E-004                                                     F               2         First time derivative of Platform horizontal sway translation DOF (internal DOF index = DOF_Sw), m/s
          3     3.41886631213E-003                                                     F               2         First time derivative of Platform vertical heave translation DOF (internal DOF index = DOF_Hv), m/s
          4    -3.59346522600E-005                                                     F               2         First time derivative of Platform roll tilt rotation DOF (internal DOF index = DOF_R), rad/s
          5     9.20808997762E-006                                                     F               2         First time derivative of Platform pitch tilt rotation DOF (internal DOF index = DOF_P), rad/s
          6    -1.85280612186E-006                                                     F               2         First time derivative of Platform yaw rotation DOF (internal DOF index = DOF_Y), rad/s
          7     7.91688084602E-001                                                     F               2         First time derivative of Variable speed generator DOF (internal DOF index = DOF_GeAz), rad/s
          8     3.87876898458E-005                                                     F               2         First time derivative of First time derivative of Platform horizontal surge translation DOF (internal DOF index = DOF_Sg), m/s/s
          9    -1.89868718735E-004                                                     F               2         First time derivative of First time derivative of Platform horizontal sway translation DOF (internal DOF index = DOF_Sw), m/s/s
         10    -1.98901980184E-003                                                     F               2         First time derivative of First time derivative of Platform vertical heave translation DOF (internal DOF index = DOF_Hv), m/s/s
         11     1.71495885297E-005                                                     F               2         First time derivative of First time derivative of Platform roll tilt rotation DOF (internal DOF index = DOF_R), rad/s/s
         12     7.79820584285E-006                                                     F               2         First time derivative of First time derivative of Platform pitch tilt rotation DOF (internal DOF index = DOF_P), rad/s/s
         13     1.98599263967E-006                                                     F               2         First time derivative of First time derivative of Platform yaw rotation DOF (internal DOF index = DOF_Y), rad/s/s
         14    -1.66259502294E-004                                                     F               2         First time derivative of First time derivative of Variable speed generator DOF (internal DOF index = DOF_GeAz), rad/s/s

Order of inputs:
     Column   Operating Point                                                   Rotating Frame? Derivative Order Description
   ---------- ---------------                                                   --------------- ---------------- -----------
          1     1.66291595459E+002                                                     F               0         Blade 1 X force, node 1, N
          2     8.84430389404E+001                                                     F               0         Blade 1 Y force, node 1, N
          3    -3.21299629211E+001                                                     F               0         Blade 1 Z force, node 1, N
          4     7.04390563965E+002                                                     F               0         Blade 1 X force, node 2, N
          5     1.46727340698E+002                                                     F               0         Blade 1 Y force, node 2, N
          6    -1.47961151123E+002                                                     F               0         Blade 1 Z force, node 2, N
          7     9.05117492676E+002                                                     F               0         Blade 1 X force, node 3, N
          8    -5.49596557617E+001                                                     F               0         Blade 1 Y force, node 3, N
          9    -2.02799148560E+002                                                     F               0         Blade 1 Z force, node 3, N
         10     1.18061889648E+003                                                     F               0         Blade 1 X force, node 4, N
         11    -2.41190719604E+002                                                     F               0         Blade 1 Y force, node 4, N
         12    -2.73350219727E+002                                                     F               0         Blade 1 Z force, node 4, N
         13     1.45613122559E+003                                                     F               0         Blade 1 X force, node 5, N
         14    -4.27425506592E+002                                                     F               0         Blade 1 Y force, node 5, N
         15    -3.43903869629E+002                                                     F               0         Blade 1 Z force, node 5, N
         16     1.73163562012E+003                                                     F               0         Blade 1 X force, node 6, N
         17    -6.13658569336E+002                                                     F               0         Blade 1 Y force, node 6, N
         18    -4.14455688477E+002                                                     F               0         Blade 1 Z force, node 6, N
         19     2.00712646484E+003                                                     F               0         Blade 1 X force, node 7, N
         20    -7.99886413574E+002                                                     F               0         Blade 1 Y force, node 7, N
         21    -4.85004272461E+002                                                     F               0         Blade 1 Z force, node 7, N
         22     2.28262792969E+003                                                     F               0         Blade 1 X force, node 8, N
         23    -9.86117431641E+002                                                     F               0         Blade 1 Y force, node 8, N
         24    -5.55555297852E+002                                                     F               0         Blade 1 Z force, node 8, N
         25     2.55812939453E+003                                                     F               0         Blade 1 X force, node 9, N
         26    -1.17234863281E+003                                                     F               0         Blade 1 Y force, node 9, N
         27    -6.26106384277E+002                                                     F               0         Blade 1 Z force, node 9, N
         28     2.83363110352E+003                                                     F               0         Blade 1 X force, node 10, N
         29    -1.35857971191E+003                                                     F               0         Blade 1 Y force, node 10, N
         30    -6.96657470703E+002                                                     F               0         Blade 1 Z force, node 10, N
         31     3.10913256836E+003                                                     F               0         Blade 1 X force, node 11, N
         32    -1.54481079102E+003                                                     F               0         Blade 1 Y force, node 11, N
         33    -7.67208496094E+002                                                     F               0         Blade 1 Z force, node 11, N
         34     3.38465747070E+003                                                     F               0         Blade 1 X force, node 12, N
         35    -1.73105419922E+003                                                     F               0         Blade 1 Y force, node 12, N
         36    -8.37765319824E+002                                                     F               0         Blade 1 Z force, node 12, N
         37     3.66016186523E+003                                                     F               0         Blade 1 X force, node 13, N
         38    -1.91728710938E+003                                                     F               0         Blade 1 Y force, node 13, N
         39    -9.08317260742E+002                                                     F               0         Blade 1 Z force, node 13, N
         40     3.93564013672E+003                                                     F               0         Blade 1 X force, node 14, N
         41    -2.10350659180E+003                                                     F               0         Blade 1 Y force, node 14, N
         42    -9.78862487793E+002                                                     F               0         Blade 1 Z force, node 14, N
         43     4.21116943359E+003                                                     F               0         Blade 1 X force, node 15, N
         44    -2.28975292969E+003                                                     F               0         Blade 1 Y force, node 15, N
         45    -1.04942053223E+003                                                     F               0         Blade 1 Z force, node 15, N
         46     4.48664208984E+003                                                     F               0         Blade 1 X force, node 16, N
         47    -2.47596777344E+003                                                     F               0         Blade 1 Y force, node 16, N
         48    -1.11996435547E+003                                                     F               0         Blade 1 Z force, node 16, N
         49     5.51617626953E+003                                                     F               0         Blade 1 X force, node 17, N
         50    -3.07589550781E+003                                                     F               0         Blade 1 Y force, node 17, N
         51    -1.37861267090E+003                                                     F               0         Blade 1 Z force, node 17, N
         52     4.16683154297E+003                                                     F               0         Blade 1 X force, node 18, N
         53    -2.27402587891E+003                                                     F               0         Blade 1 Y force, node 18, N
         54    -1.03880773926E+003                                                     F               0         Blade 1 Z force, node 18, N
         55     5.04897460938E+003                                                     F               0         Blade 1 X force, node 19, N
         56    -2.67103833008E+003                                                     F               0         Blade 1 Y force, node 19, N
         57    -1.25433581543E+003                                                     F               0         Blade 1 Z force, node 19, N
         58     4.25409716797E+003                                                     F               0         Blade 1 X force, node 20, N
         59    -2.18321728516E+003                                                     F               0         Blade 1 Y force, node 20, N
         60    -1.05335791016E+003                                                     F               0         Blade 1 Z force, node 20, N
         61     6.19702001953E+003                                                     F               0         Blade 1 X force, node 21, N
         62    -3.07025781250E+003                                                     F               0         Blade 1 Y force, node 21, N
         63    -1.52871606445E+003                                                     F               0         Blade 1 Z force, node 21, N
         64     5.39457421875E+003                                                     F               0         Blade 1 X force, node 22, N
         65    -2.58180859375E+003                                                     F               0         Blade 1 Y force, node 22, N
         66    -1.32603344727E+003                                                     F               0         Blade 1 Z force, node 22, N
         67     5.47289257812E+003                                                     F               0         Blade 1 X force, node 23, N
         68    -2.53695971680E+003                                                     F               0         Blade 1 Y force, node 23, N
         69    -1.34099963379E+003                                                     F               0         Blade 1 Z force, node 23, N
         70     5.64526562500E+003                                                     F               0         Blade 1 X force, node 24, N
         71    -2.53515551758E+003                                                     F               0         Blade 1 Y force, node 24, N
         72    -1.37898266602E+003                                                     F               0         Blade 1 Z force, node 24, N
         73     5.70694580078E+003                                                     F               0         Blade 1 X force, node 25, N
         74    -2.48451000977E+003                                                     F               0         Blade 1 Y force, node 25, N
         75    -1.38997167969E+003                                                     F               0         Blade 1 Z force, node 25, N
         76     5.79788574219E+003                                                     F               0         Blade 1 X force, node 26, N
         77    -2.44748022461E+003                                                     F               0         Blade 1 Y force, node 26, N
         78    -1.40813244629E+003                                                     F               0         Blade 1 Z force, node 26, N
         79     6.85241992188E+003                                                     F               0         Blade 1 X force, node 27, N
         80    -2.79987158203E+003                                                     F               0         Blade 1 Y force, node 27, N
         81    -1.65941894531E+003                                                     F               0         Blade 1 Z force, node 27, N
         82     5.01038378906E+003                                                     F               0         Blade 1 X force, node 28, N
         83    -1.98482629395E+003                                                     F               0         Blade 1 Y force, node 28, N
         84    -1.21009362793E+003                                                     F               0         Blade 1 Z force, node 28, N
         85     6.05772412109E+003                                                     F               0         Blade 1 X force, node 29, N
         86    -2.33839208984E+003                                                     F               0         Blade 1 Y force, node 29, N
         87    -1.45985217285E+003                                                     F               0         Blade 1 Z force, node 29, N
         88     5.09591210938E+003                                                     F               0         Blade 1 X force, node 30, N
         89    -1.91700244141E+003                                                     F               0         Blade 1 Y force, node 30, N
         90    -1.22545642090E+003                                                     F               0         Blade 1 Z force, node 30, N
         91     7.25579394531E+003                                                     F               0         Blade 1 X force, node 31, N
         92    -2.64913647461E+003                                                     F               0         Blade 1 Y force, node 31, N
         93    -1.74067761230E+003                                                     F               0         Blade 1 Z force, node 31, N
         94     6.26221435547E+003                                                     F               0         Blade 1 X force, node 32, N
         95    -2.22028735352E+003                                                     F               0         Blade 1 Y force, node 32, N
         96    -1.49887622070E+003                                                     F               0         Blade 1 Z force, node 32, N
         97     6.31086816406E+003                                                     F               0         Blade 1 X force, node 33, N
         98    -2.17624487305E+003                                                     F               0         Blade 1 Y force, node 33, N
         99    -1.50733117676E+003                                                     F               0         Blade 1 Z force, node 33, N
        100     6.35993847656E+003                                                     F               0         Blade 1 X force, node 34, N
        101    -2.13325463867E+003                                                     F               0         Blade 1 Y force, node 34, N
        102    -1.51593310547E+003                                                     F               0         Blade 1 Z force, node 34, N
        103     6.40419482422E+003                                                     F               0         Blade 1 X force, node 35, N
        104    -2.09224536133E+003                                                     F               0         Blade 1 Y force, node 35, N
        105    -1.52357482910E+003                                                     F               0         Blade 1 Z force, node 35, N
        106     6.44554443359E+003                                                     F               0         Blade 1 X force, node 36, N
        107    -2.05117260742E+003                                                     F               0         Blade 1 Y force, node 36, N
        108    -1.53057104492E+003                                                     F               0         Blade 1 Z force, node 36, N
        109     7.58151904297E+003                                                     F               0         Blade 1 X force, node 37, N
        110    -2.34556542969E+003                                                     F               0         Blade 1 Y force, node 37, N
        111    -1.79682849121E+003                                                     F               0         Blade 1 Z force, node 37, N
        112     5.42150634766E+003                                                     F               0         Blade 1 X force, node 38, N
        113    -1.63271337891E+003                                                     F               0         Blade 1 Y force, node 38, N
        114    -1.28258215332E+003                                                     F               0         Blade 1 Z force, node 38, N
        115     6.53825781250E+003                                                     F               0         Blade 1 X force, node 39, N
        116    -1.92489416504E+003                                                     F               0         Blade 1 Y force, node 39, N
        117    -1.54447827148E+003                                                     F               0         Blade 1 Z force, node 39, N
        118     5.48745166016E+003                                                     F               0         Blade 1 X force, node 40, N
        119    -1.57856774902E+003                                                     F               0         Blade 1 Y force, node 40, N
        120    -1.29433105469E+003                                                     F               0         Blade 1 Z force, node 40, N
        121     7.64941015625E+003                                                     F               0         Blade 1 X force, node 41, N
        122    -2.14210839844E+003                                                     F               0         Blade 1 Y force, node 41, N
        123    -1.80123535156E+003                                                     F               0         Blade 1 Z force, node 41, N
        124     6.58656103516E+003                                                     F               0         Blade 1 X force, node 42, N
        125    -1.79671142578E+003                                                     F               0         Blade 1 Y force, node 42, N
        126    -1.54847619629E+003                                                     F               0         Blade 1 Z force, node 42, N
        127     6.59546386719E+003                                                     F               0         Blade 1 X force, node 43, N
        128    -1.75451245117E+003                                                     F               0         Blade 1 Y force, node 43, N
        129    -1.54824645996E+003                                                     F               0         Blade 1 Z force, node 43, N
        130     6.63805615234E+003                                                     F               0         Blade 1 X force, node 44, N
        131    -1.72157434082E+003                                                     F               0         Blade 1 Y force, node 44, N
        132    -1.55594055176E+003                                                     F               0         Blade 1 Z force, node 44, N
        133     6.57193164062E+003                                                     F               0         Blade 1 X force, node 45, N
        134    -1.66313916016E+003                                                     F               0         Blade 1 Y force, node 45, N
        135    -1.53829248047E+003                                                     F               0         Blade 1 Z force, node 45, N
        136     6.60898583984E+003                                                     F               0         Blade 1 X force, node 46, N
        137    -1.63187475586E+003                                                     F               0         Blade 1 Y force, node 46, N
        138    -1.54485021973E+003                                                     F               0         Blade 1 Z force, node 46, N
        139     7.76065820312E+003                                                     F               0         Blade 1 X force, node 47, N
        140    -1.86541796875E+003                                                     F               0         Blade 1 Y force, node 47, N
        141    -1.81140820312E+003                                                     F               0         Blade 1 Z force, node 47, N
        142     5.45087109375E+003                                                     F               0         Blade 1 X force, node 48, N
        143    -1.27670141602E+003                                                     F               0         Blade 1 Y force, node 48, N
        144    -1.27053845215E+003                                                     F               0         Blade 1 Z force, node 48, N
        145     6.58454833984E+003                                                     F               0         Blade 1 X force, node 49, N
        146    -1.50885046387E+003                                                     F               0         Blade 1 Y force, node 49, N
        147    -1.53304858398E+003                                                     F               0         Blade 1 Z force, node 49, N
        148     5.53483300781E+003                                                     F               0         Blade 1 X force, node 50, N
        149    -1.23977148438E+003                                                     F               0         Blade 1 Y force, node 50, N
        150    -1.28716308594E+003                                                     F               0         Blade 1 Z force, node 50, N
        151     7.58345117188E+003                                                     F               0         Blade 1 X force, node 51, N
        152    -1.65405627441E+003                                                     F               0         Blade 1 Y force, node 51, N
        153    -1.76126208496E+003                                                     F               0         Blade 1 Z force, node 51, N
        154     6.53161523438E+003                                                     F               0         Blade 1 X force, node 52, N
        155    -1.38778564453E+003                                                     F               0         Blade 1 Y force, node 52, N
        156    -1.51505444336E+003                                                     F               0         Blade 1 Z force, node 52, N
        157     6.51256689453E+003                                                     F               0         Blade 1 X force, node 53, N
        158    -1.34907690430E+003                                                     F               0         Blade 1 Y force, node 53, N