
Linearized model: Predictions were generated on 07-Feb-2024 at 11:38:03 using OpenFAST, compiled as a 64-bit application using single precision at commit v3.5.1
 linked with  NWTC Subroutine Library; ElastoDyn; InflowWind; AeroDyn; ServoDyn; HydroDyn; MAP++ (<1.20.10>, <Oct-20-2023>)

Description from the FAST input file: CCT-9 Campign 4 model. Input files to be run with OpenFAST 3.5.0. GitHub branch from Lu Wang (https://github.com/luwang00/openfast/tree/dev) compiled on March 7, 2023.

Simulation information:
   Simulation time:                  1000.7500 s
   Rotor Speed:                         1.0389 rad/s
   Azimuth:                             1.8291 rad
   Wind Speed:                         12.0000 m/s
   Number of continuous states:        22
   Number of discrete states:           0
   Number of constraint states:         0
   Number of inputs:                 3988
   Number of outputs:                  41
   Jacobians included in this file?    No

Order of continuous states:
   Row/Column Operating Point                     Rotating Frame? Derivative Order Description
   ---------- ---------------                     --------------- ---------------- -----------
          1    1.230E+01                                 F               2         ED Platform horizontal surge translation DOF (internal DOF index = DOF_Sg), m
          2   -2.190E-01                                 F               2         ED Platform horizontal sway translation DOF (internal DOF index = DOF_Sw), m
          3   -2.582E-01                                 F               2         ED Platform vertical heave translation DOF (internal DOF index = DOF_Hv), m
          4    4.525E-02                                 F               2         ED Platform roll tilt rotation DOF (internal DOF index = DOF_R), rad
          5    1.572E-01                                 F               2         ED Platform pitch tilt rotation DOF (internal DOF index = DOF_P), rad
          6    1.101E-02                                 F               2         ED Platform yaw rotation DOF (internal DOF index = DOF_Y), rad
          7    1.085E+00                                 F               2         ED 1st tower fore-aft bending mode DOF (internal DOF index = DOF_TFA1), m
          8    1.805E-01                                 F               2         ED 1st tower side-to-side bending mode DOF (internal DOF index = DOF_TSS1), m
          9    1.603E-03                                 F               2         ED 2nd tower fore-aft bending mode DOF (internal DOF index = DOF_TFA2), m
         10    7.663E-05                                 F               2         ED 2nd tower side-to-side bending mode DOF (internal DOF index = DOF_TSS2), m
         11    2.583E-01                                 F               2         ED Variable speed generator DOF (internal DOF index = DOF_GeAz), rad
         12   -1.392E-03                                 F               2         ED First time derivative of Platform horizontal surge translation DOF (internal DOF index = DOF_Sg), m/s
         13    8.196E-04                                 F               2         ED First time derivative of Platform horizontal sway translation DOF (internal DOF index = DOF_Sw), m/s
         14   -3.081E-03                                 F               2         ED First time derivative of Platform vertical heave translation DOF (internal DOF index = DOF_Hv), m/s
         15    1.983E-03                                 F               2         ED First time derivative of Platform roll tilt rotation DOF (internal DOF index = DOF_R), rad/s
         16   -2.290E-05                                 F               2         ED First time derivative of Platform pitch tilt rotation DOF (internal DOF index = DOF_P), rad/s
         17   -5.798E-04                                 F               2         ED First time derivative of Platform yaw rotation DOF (internal DOF index = DOF_Y), rad/s
         18    1.096E-03                                 F               2         ED First time derivative of 1st tower fore-aft bending mode DOF (internal DOF index = DOF_TFA1), m/s
         19    1.347E-02                                 F               2         ED First time derivative of 1st tower side-to-side bending mode DOF (internal DOF index = DOF_TSS1), m/s
         20    9.973E-06                                 F               2         ED First time derivative of 2nd tower fore-aft bending mode DOF (internal DOF index = DOF_TFA2), m/s
         21    1.666E-06                                 F               2         ED First time derivative of 2nd tower side-to-side bending mode DOF (internal DOF index = DOF_TSS2), m/s
         22    1.039E+00                                 F               2         ED First time derivative of Variable speed generator DOF (internal DOF index = DOF_GeAz), rad/s

Order of continuous state derivatives:
   Row/Column Operating Point                     Rotating Frame? Derivative Order Description
   ---------- ---------------                     --------------- ---------------- -----------
          1   -1.392E-03                                 F               2         First time derivative of ED Platform horizontal surge translation DOF (internal DOF index = DOF_Sg), m/s
          2    8.196E-04                                 F               2         First time derivative of ED Platform horizontal sway translation DOF (internal DOF index = DOF_Sw), m/s
          3   -3.081E-03                                 F               2         First time derivative of ED Platform vertical heave translation DOF (internal DOF index = DOF_Hv), m/s
          4    1.983E-03                                 F               2         First time derivative of ED Platform roll tilt rotation DOF (internal DOF index = DOF_R), rad/s
          5   -2.290E-05                                 F               2         First time derivative of ED Platform pitch tilt rotation DOF (internal DOF index = DOF_P), rad/s
          6   -5.798E-04                                 F               2         First time derivative of ED Platform yaw rotation DOF (internal DOF index = DOF_Y), rad/s
          7    1.096E-03                                 F               2         First time derivative of ED 1st tower fore-aft bending mode DOF (internal DOF index = DOF_TFA1), m/s
          8    1.347E-02                                 F               2         First time derivative of ED 1st tower side-to-side bending mode DOF (internal DOF index = DOF_TSS1), m/s
          9    9.973E-06                                 F               2         First time derivative of ED 2nd tower fore-aft bending mode DOF (internal DOF index = DOF_TFA2), m/s
         10    1.666E-06                                 F               2         First time derivative of ED 2nd tower side-to-side bending mode DOF (internal DOF index = DOF_TSS2), m/s
         11    1.039E+00                                 F               2         First time derivative of ED Variable speed generator DOF (internal DOF index = DOF_GeAz), rad/s
         12   -9.154E-05                                 F               2         First time derivative of ED First time derivative of Platform horizontal surge translation DOF (internal DOF index = DOF_Sg), m/s/s
         13   -5.452E-04                                 F               2         First time derivative of ED First time derivative of Platform horizontal sway translation DOF (internal DOF index = DOF_Sw), m/s/s
         14    1.597E-03                                 F               2         First time derivative of ED First time derivative of Platform vertical heave translation DOF (internal DOF index = DOF_Hv), m/s/s
         15   -4.715E-05                                 F               2         First time derivative of ED First time derivative of Platform roll tilt rotation DOF (internal DOF index = DOF_R), rad/s/s
         16   -2.729E-05                                 F               2         First time derivative of ED First time derivative of Platform pitch tilt rotation DOF (internal DOF index = DOF_P), rad/s/s
         17    9.656E-05                                 F               2         First time derivative of ED First time derivative of Platform yaw rotation DOF (internal DOF index = DOF_Y), rad/s/s
         18    3.285E-03                                 F               2         First time derivative of ED First time derivative of 1st tower fore-aft bending mode DOF (internal DOF index = DOF_TFA1), m/s/s
         19   -4.747E-04                                 F               2         First time derivative of ED First time derivative of 1st tower side-to-side bending mode DOF (internal DOF index = DOF_TSS1), m/s/s
         20    3.406E-05                                 F               2         First time derivative of ED First time derivative of 2nd tower fore-aft bending mode DOF (internal DOF index = DOF_TFA2), m/s/s
         21   -2.662E-07                                 F               2         First time derivative of ED First time derivative of 2nd tower side-to-side bending mode DOF (internal DOF index = DOF_TSS2), m/s/s
         22    2.959E-04                                 F               2         First time derivative of ED First time derivative of Variable speed generator DOF (internal DOF index = DOF_GeAz), rad/s/s

Order of inputs:
     Column   Operating Point                     Rotating Frame? Derivative Order Description
   ---------- ---------------                     --------------- ---------------- -----------
          1   -1.080E+01                                 F               0         IfW X-component position of node 1 (hub), m
          2    0.000E+00                                 F               0         IfW Y-component position of node 1 (hub), m
          3    1.497E+02                                 F               0         IfW Z-component position of node 1 (hub), m
          4    2.574E+01                                 F               0         IfW X-component position of node 2 (blade 1, node 1), m
          5   -1.241E+01                                 F               0         IfW Y-component position of node 2 (blade 1, node 1), m
          6    1.475E+02                                 F               0         IfW Z-component position of node 2 (blade 1, node 1), m
          7    2.566E+01                                 F               0         IfW X-component position of node 3 (blade 1, node 2), m
          8   -1.368E+01                                 F               0         IfW Y-component position of node 3 (blade 1, node 2), m
          9    1.471E+02                                 F               0         IfW Z-component position of node 3 (blade 1, node 2), m
         10    2.453E+01                                 F               0         IfW X-component position of node 4 (blade 1, node 3), m
         11   -3.101E+01                                 F               0         IfW Y-component position of node 4 (blade 1, node 3), m
         12    1.418E+02                                 F               0         IfW Z-component position of node 4 (blade 1, node 3), m
         13    2.429E+01                                 F               0         IfW X-component position of node 5 (blade 1, node 4), m
         14   -3.470E+01                                 F               0         IfW Y-component position of node 5 (blade 1, node 4), m
         15    1.407E+02                                 F               0         IfW Z-component position of node 5 (blade 1, node 4), m
         16    2.405E+01                                 F               0         IfW X-component position of node 6 (blade 1, node 5), m
         17   -3.839E+01                                 F               0         IfW Y-component position of node 6 (blade 1, node 5), m
         18    1.396E+02                                 F               0         IfW Z-component position of node 6 (blade 1, node 5), m
         19    2.381E+01                                 F               0         IfW X-component position of node 7 (blade 1, node 6), m
         20   -4.208E+01                                 F               0         IfW Y-component position of node 7 (blade 1, node 6), m
         21    1.384E+02                                 F               0         IfW Z-component position of node 7 (blade 1, node 6), m
         22    2.357E+01                                 F               0         IfW X-component position of node 8 (blade 1, node 7), m
         23   -4.577E+01                                 F               0         IfW Y-component position of node 8 (blade 1, node 7), m
         24    1.373E+02                                 F               0         IfW Z-component position of node 8 (blade 1, node 7), m
         25    2.333E+01                                 F               0         IfW X-component position of node 9 (blade 1, node 8), m
         26   -4.947E+01                                 F               0         IfW Y-component position of node 9 (blade 1, node 8), m
         27    1.362E+02                                 F               0         IfW Z-component position of node 9 (blade 1, node 8), m
         28    2.309E+01                                 F               0         IfW X-component position of node 10 (blade 1, node 9), m
         29   -5.316E+01                                 F               0         IfW Y-component position of node 10 (blade 1, node 9), m
         30    1.351E+02                                 F               0         IfW Z-component position of node 10 (blade 1, node 9), m
         31    2.284E+01                                 F               0         IfW X-component position of node 11 (blade 1, node 10), m
         32   -5.685E+01                                 F               0         IfW Y-component position of node 11 (blade 1, node 10), m
         33    1.339E+02                                 F               0         IfW Z-component position of node 11 (blade 1, node 10), m
         34    2.260E+01                                 F               0         IfW X-component position of node 12 (blade 1, node 11), m
         35   -6.054E+01                                 F               0         IfW Y-component position of node 12 (blade 1, node 11), m
         36    1.328E+02                                 F               0         IfW Z-component position of node 12 (blade 1, node 11), m
         37    2.236E+01                                 F               0         IfW X-component position of node 13 (blade 1, node 12), m
         38   -6.423E+01                                 F               0         IfW Y-component position of node 13 (blade 1, node 12), m
         39    1.317E+02                                 F               0         IfW Z-component position of node 13 (blade 1, node 12), m
         40    2.212E+01                                 F               0         IfW X-component position of node 14 (blade 1, node 13), m
         41   -6.792E+01                                 F               0         IfW Y-component position of node 14 (blade 1, node 13), m
         42    1.305E+02                                 F               0         IfW Z-component position of node 14 (blade 1, node 13), m
         43    2.188E+01                                 F               0         IfW X-component position of node 15 (blade 1, node 14), m
         44   -7.161E+01                                 F               0         IfW Y-component position of node 15 (blade 1, node 14), m
         45    1.294E+02                                 F               0         IfW Z-component position of node 15 (blade 1, node 14), m
         46    2.164E+01                                 F               0         IfW X-component position of node 16 (blade 1, node 15), m
         47   -7.531E+01                                 F               0         IfW Y-component position of node 16 (blade 1, node 15), m
         48    1.283E+02                                 F               0         IfW Z-component position of node 16 (blade 1, node 15), m
         49    2.140E+01                                 F               0         IfW X-component position of node 17 (blade 1, node 16), m
         50   -7.900E+01                                 F               0         IfW Y-component position of node 17 (blade 1, node 16), m
         51    1.272E+02                                 F               0         IfW Z-component position of node 17 (blade 1, node 16), m
         52    2.116E+01                                 F               0         IfW X-component position of node 18 (blade 1, node 17), m
         53   -8.269E+01                                 F               0         IfW Y-component position of node 18 (blade 1, node 17), m
         54    1.260E+02                                 F               0         IfW Z-component position of node 18 (blade 1, node 17), m
         55    2.092E+01                                 F               0         IfW X-component position of node 19 (blade 1, node 18), m
         56   -8.638E+01                                 F               0         IfW Y-component position of node 19 (blade 1, node 18), m
         57    1.249E+02                                 F               0         IfW Z-component position of node 19 (blade 1, node 18), m
         58    2.068E+01                                 F               0         IfW X-component position of node 20 (blade 1, node 19), m
         59   -9.007E+01                                 F               0         IfW Y-component position of node 20 (blade 1, node 19), m
         60    1.238E+02                                 F               0         IfW Z-component position of node 20 (blade 1, node 19), m
         61    2.044E+01                                 F               0         IfW X-component position of node 21 (blade 1, node 20), m
         62   -9.376E+01                                 F               0         IfW Y-component position of node 21 (blade 1, node 20), m
         63    1.226E+02                                 F               0         IfW Z-component position of node 21 (blade 1, node 20), m
         64    2.020E+01                                 F               0         IfW X-component position of node 22 (blade 1, node 21), m
         65   -9.746E+01                                 F               0         IfW Y-component position of node 22 (blade 1, node 21), m
         66    1.215E+02                                 F               0         IfW Z-component position of node 22 (blade 1, node 21), m
         67    1.996E+01                                 F               0         IfW X-component position of node 23 (blade 1, node 22), m
         68   -1.011E+02                                 F               0         IfW Y-component position of node 23 (blade 1, node 22), m
         69    1.204E+02                                 F               0         IfW Z-component position of node 23 (blade 1, node 22), m
         70    1.972E+01                                 F               0         IfW X-component position of node 24 (blade 1, node 23), m
         71   -1.048E+02                                 F               0         IfW Y-component position of node 24 (blade 1, node 23), m
         72    1.193E+02                                 F               0         IfW Z-component position of node 24 (blade 1, node 23), m
         73    1.947E+01                                 F               0         IfW X-component position of node 25 (blade 1, node 24), m
         74   -1.085E+02                                 F               0         IfW Y-component position of node 25 (blade 1, node 24), m
         75    1.181E+02                                 F               0         IfW Z-component position of node 25 (blade 1, node 24), m
         76    1.923E+01                                 F               0         IfW X-component position of node 26 (blade 1, node 25), m
         77   -1.122E+02                                 F               0         IfW Y-component position of node 26 (blade 1, node 25), m
         78    1.170E+02                                 F               0         IfW Z-component position of node 26 (blade 1, node 25), m
         79    1.899E+01                                 F               0         IfW X-component position of node 27 (blade 1, node 26), m
         80   -1.159E+02                                 F               0         IfW Y-component position of node 27 (blade 1, node 26), m
         81    1.159E+02                                 F               0         IfW Z-component position of node 27 (blade 1, node 26), m
         82    1.875E+01                                 F               0         IfW X-component position of node 28 (blade 1, node 27), m
         83   -1.196E+02                                 F               0         IfW Y-component position of node 28 (blade 1, node 27), m
         84    1.147E+02                                 F               0         IfW Z-component position of node 28 (blade 1, node 27), m
         85    1.855E+01                                 F               0         IfW X-component position of node 29 (blade 1, node 28), m
         86   -1.227E+02                                 F               0         IfW Y-component position of node 29 (blade 1, node 28), m
         87    1.138E+02                                 F               0         IfW Z-component position of node 29 (blade 1, node 28), m
         88    2.500E+01                                 F               0         IfW X-component position of node 30 (blade 2, node 1), m
         89   -3.048E+00                                 F               0         IfW Y-component position of node 30 (blade 2, node 1), m
         90    1.455E+02                                 F               0         IfW Z-component position of node 30 (blade 2, node 1), m
         91    2.473E+01                                 F               0         IfW X-component position of node 31 (blade 2, node 2), m
         92   -2.067E+00                                 F               0         IfW Y-component position of node 31 (blade 2, node 2), m
         93    1.447E+02                                 F               0         IfW Z-component position of node 31 (blade 2, node 2), m
         94    2.116E+01                                 F               0         IfW X-component position of node 32 (blade 2, node 3), m
         95    1.128E+01                                 F               0         IfW Y-component position of node 32 (blade 2, node 3), m
         96    1.329E+02                                 F               0         IfW Z-component position of node 32 (blade 2, node 3), m
         97    2.040E+01                                 F               0         IfW X-component position of node 33 (blade 2, node 4), m
         98    1.412E+01                                 F               0         IfW Y-component position of node 33 (blade 2, node 4), m
         99    1.304E+02                                 F               0         IfW Z-component position of node 33 (blade 2, node 4), m
        100    1.964E+01                                 F               0         IfW X-component position of node 34 (blade 2, node 5), m
        101    1.696E+01                                 F               0         IfW Y-component position of node 34 (blade 2, node 5), m
        102    1.279E+02                                 F               0         IfW Z-component position of node 34 (blade 2, node 5), m
        103    1.888E+01                                 F               0         IfW X-component position of node 35 (blade 2, node 6), m
        104    1.981E+01                                 F               0         IfW Y-component position of node 35 (blade 2, node 6), m
        105    1.254E+02                                 F               0         IfW Z-component position of node 35 (blade 2, node 6), m
        106    1.812E+01                                 F               0         IfW X-component position of node 36 (blade 2, node 7), m
        107    2.265E+01                                 F               0         IfW Y-component position of node 36 (blade 2, node 7), m
        108    1.229E+02                                 F               0         IfW Z-component position of node 36 (blade 2, node 7), m
        109    1.736E+01                                 F               0         IfW X-component position of node 37 (blade 2, node 8), m
        110    2.549E+01                                 F               0         IfW Y-component position of node 37 (blade 2, node 8), m
        111    1.203E+02                                 F               0         IfW Z-component position of node 37 (blade 2, node 8), m
        112    1.660E+01                                 F               0         IfW X-component position of node 38 (blade 2, node 9), m
        113    2.833E+01                                 F               0         IfW Y-component position of node 38 (blade 2, node 9), m
        114    1.178E+02                                 F               0         IfW Z-component position of node 38 (blade 2, node 9), m
        115    1.584E+01                                 F               0         IfW X-component position of node 39 (blade 2, node 10), m
        116    3.118E+01                                 F               0         IfW Y-component position of node 39 (blade 2, node 10), m
        117    1.153E+02                                 F               0         IfW Z-component position of node 39 (blade 2, node 10), m
        118    1.508E+01                                 F               0         IfW X-component position of node 40 (blade 2, node 11), m
        119    3.402E+01                                 F               0         IfW Y-component position of node 40 (blade 2, node 11), m
        120    1.128E+02                                 F               0         IfW Z-component position of node 40 (blade 2, node 11), m
        121    1.432E+01                                 F               0         IfW X-component position of node 41 (blade 2, node 12), m
        122    3.686E+01                                 F               0         IfW Y-component position of node 41 (blade 2, node 12), m
        123    1.103E+02                                 F               0         IfW Z-component position of node 41 (blade 2, node 12), m
        124    1.356E+01                                 F               0         IfW X-component position of node 42 (blade 2, node 13), m
        125    3.971E+01                                 F               0         IfW Y-component position of node 42 (blade 2, node 13), m
        126    1.078E+02                                 F               0         IfW Z-component position of node 42 (blade 2, node 13), m
        127    1.280E+01                                 F               0         IfW X-component position of node 43 (blade 2, node 14), m
        128    4.255E+01                                 F               0         IfW Y-component position of node 43 (blade 2, node 14), m
        129    1.053E+02                                 F               0         IfW Z-component position of node 43 (blade 2, node 14), m
        130    1.204E+01                                 F               0         IfW X-component position of node 44 (blade 2, node 15), m
        131    4.539E+01                                 F               0         IfW Y-component position of node 44 (blade 2, node 15), m
        132    1.028E+02                                 F               0         IfW Z-component position of node 44 (blade 2, node 15), m
        133    1.128E+01                                 F               0         IfW X-component position of node 45 (blade 2, node 16), m
        134    4.823E+01                                 F               0         IfW Y-component position of node 45 (blade 2, node 16), m
        135    1.003E+02                                 F               0         IfW Z-component position of node 45 (blade 2, node 16), m
        136    1.052E+01                                 F               0         IfW X-component position of node 46 (blade 2, node 17), m
        137    5.108E+01                                 F               0         IfW Y-component position of node 46 (blade 2, node 17), m
        138    9.776E+01                                 F               0         IfW Z-component position of node 46 (blade 2, node 17), m
        139    9.755E+00                                 F               0         IfW X-component position of node 47 (blade 2, node 18), m
        140    5.392E+01                                 F               0         IfW Y-component position of node 47 (blade 2, node 18), m
        141    9.525E+01                                 F               0         IfW Z-component position of node 47 (blade 2, node 18), m
        142    8.994E+00                                 F               0         IfW X-component position of node 48 (blade 2, node 19), m
        143    5.676E+01                                 F               0         IfW Y-component position of node 48 (blade 2, node 19), m
        144    9.274E+01                                 F               0         IfW Z-component position of node 48 (blade 2, node 19), m