
Linearized model: Predictions were generated on 13-Feb-2024 at 12:12:09 using OpenFAST, compiled as a 64-bit application using single precision at commit v3.5.1
 linked with  NWTC Subroutine Library; ElastoDyn; InflowWind; AeroDyn; ServoDyn; HydroDyn; MAP++ (<1.20.10>, <Oct-20-2023>)

Description from the FAST input file: CCT-9 Campign 4 model. Input files to be run with OpenFAST 3.5.0. GitHub branch from Lu Wang (https://github.com/luwang00/openfast/tree/dev) compiled on March 7, 2023.

Simulation information:
   Simulation time:                   776.1750 s
   Rotor Speed:                         0.7921 rad/s
   Azimuth:                             4.5449 rad
   Wind Speed:                         24.0000 m/s
   Number of continuous states:         0
   Number of discrete states:           0
   Number of constraint states:         0
   Number of inputs:                  303
   Number of outputs:                   1
   Jacobians included in this file?    No

Order of inputs:
     Column   Operating Point                                                   Rotating Frame? Derivative Order Description
   ---------- ---------------                                                   --------------- ---------------- -----------
          1    -1.08005075455E+001                                                     F               0         X-component position of node 1 (hub), m
          2     0.00000000000E+000                                                     F               0         Y-component position of node 1 (hub), m
          3     1.49740173340E+002                                                     F               0         Z-component position of node 1 (hub), m
          4     1.06899652481E+001                                                     F               0         X-component position of node 2 (blade 1, node 1), m
          5    -3.70718336105E+000                                                     F               0         Y-component position of node 2 (blade 1, node 1), m
          6     1.49163192749E+002                                                     F               0         Z-component position of node 2 (blade 1, node 1), m
          7     1.06605024338E+001                                                     F               0         X-component position of node 3 (blade 1, node 2), m
          8    -2.38021802902E+000                                                     F               0         Y-component position of node 3 (blade 1, node 2), m
          9     1.49020828247E+002                                                     F               0         Z-component position of node 3 (blade 1, node 2), m
         10     1.02598600388E+001                                                     F               0         X-component position of node 4 (blade 1, node 3), m
         11     1.56642074585E+001                                                     F               0         Y-component position of node 4 (blade 1, node 3), m
         12     1.47084838867E+002                                                     F               0         Z-component position of node 4 (blade 1, node 3), m
         13     1.01745023727E+001                                                     F               0         X-component position of node 5 (blade 1, node 4), m
         14     1.95086803436E+001                                                     F               0         Y-component position of node 5 (blade 1, node 4), m
         15     1.46672363281E+002                                                     F               0         Z-component position of node 5 (blade 1, node 4), m
         16     1.00891256332E+001                                                     F               0         X-component position of node 6 (blade 1, node 5), m
         17     2.33538818359E+001                                                     F               0         Y-component position of node 6 (blade 1, node 5), m
         18     1.46259811401E+002                                                     F               0         Z-component position of node 6 (blade 1, node 5), m
         19     1.00037670135E+001                                                     F               0         X-component position of node 7 (blade 1, node 6), m
         20     2.71983699799E+001                                                     F               0         Y-component position of node 7 (blade 1, node 6), m
         21     1.45847335815E+002                                                     F               0         Z-component position of node 7 (blade 1, node 6), m
         22     9.91840744019E+000                                                     F               0         X-component position of node 8 (blade 1, node 7), m
         23     3.10428695679E+001                                                     F               0         Y-component position of node 8 (blade 1, node 7), m
         24     1.45434860229E+002                                                     F               0         Z-component position of node 8 (blade 1, node 7), m
         25     9.83303165436E+000                                                     F               0         X-component position of node 9 (blade 1, node 8), m
         26     3.48880577087E+001                                                     F               0         Y-component position of node 9 (blade 1, node 8), m
         27     1.45022308350E+002                                                     F               0         Z-component position of node 9 (blade 1, node 8), m
         28     9.74767112732E+000                                                     F               0         X-component position of node 10 (blade 1, node 9), m
         29     3.87325592041E+001                                                     F               0         Y-component position of node 10 (blade 1, node 9), m
         30     1.44609832764E+002                                                     F               0         Z-component position of node 10 (blade 1, node 9), m
         31     9.66231250763E+000                                                     F               0         X-component position of node 11 (blade 1, node 10), m
         32     4.25770454407E+001                                                     F               0         Y-component position of node 11 (blade 1, node 10), m
         33     1.44197357178E+002                                                     F               0         Z-component position of node 11 (blade 1, node 10), m
         34     9.57695198059E+000                                                     F               0         X-component position of node 12 (blade 1, node 11), m
         35     4.64215469360E+001                                                     F               0         Y-component position of node 12 (blade 1, node 11), m
         36     1.43784881592E+002                                                     F               0         Z-component position of node 12 (blade 1, node 11), m
         37     9.49157905579E+000                                                     F               0         X-component position of node 13 (blade 1, node 12), m
         38     5.02667198181E+001                                                     F               0         Y-component position of node 13 (blade 1, node 12), m
         39     1.43372329712E+002                                                     F               0         Z-component position of node 13 (blade 1, node 12), m
         40     9.40621852875E+000                                                     F               0         X-component position of node 14 (blade 1, node 13), m
         41     5.41112213135E+001                                                     F               0         Y-component position of node 14 (blade 1, node 13), m
         42     1.42959854126E+002                                                     F               0         Z-component position of node 14 (blade 1, node 13), m
         43     9.32085895538E+000                                                     F               0         X-component position of node 15 (blade 1, node 14), m
         44     5.79557075500E+001                                                     F               0         Y-component position of node 15 (blade 1, node 14), m
         45     1.42547378540E+002                                                     F               0         Z-component position of node 15 (blade 1, node 14), m
         46     9.23548316956E+000                                                     F               0         X-component position of node 16 (blade 1, node 15), m
         47     6.18009033203E+001                                                     F               0         Y-component position of node 16 (blade 1, node 15), m
         48     1.42134826660E+002                                                     F               0         Z-component position of node 16 (blade 1, node 15), m
         49     9.15012454987E+000                                                     F               0         X-component position of node 17 (blade 1, node 16), m
         50     6.56453933716E+001                                                     F               0         Y-component position of node 17 (blade 1, node 16), m
         51     1.41722351074E+002                                                     F               0         Z-component position of node 17 (blade 1, node 16), m
         52     9.06476402283E+000                                                     F               0         X-component position of node 18 (blade 1, node 17), m
         53     6.94898986816E+001                                                     F               0         Y-component position of node 18 (blade 1, node 17), m
         54     1.41309875488E+002                                                     F               0         Z-component position of node 18 (blade 1, node 17), m
         55     8.97940444946E+000                                                     F               0         X-component position of node 19 (blade 1, node 18), m
         56     7.33343887329E+001                                                     F               0         Y-component position of node 19 (blade 1, node 18), m
         57     1.40897399902E+002                                                     F               0         Z-component position of node 19 (blade 1, node 18), m
         58     8.89403057098E+000                                                     F               0         X-component position of node 20 (blade 1, node 19), m
         59     7.71795654297E+001                                                     F               0         Y-component position of node 20 (blade 1, node 19), m
         60     1.40484848022E+002                                                     F               0         Z-component position of node 20 (blade 1, node 19), m
         61     8.80866909027E+000                                                     F               0         X-component position of node 21 (blade 1, node 20), m
         62     8.10240631104E+001                                                     F               0         Y-component position of node 21 (blade 1, node 20), m
         63     1.40072372437E+002                                                     F               0         Z-component position of node 21 (blade 1, node 20), m
         64     8.72331047058E+000                                                     F               0         X-component position of node 22 (blade 1, node 21), m
         65     8.48685607910E+001                                                     F               0         Y-component position of node 22 (blade 1, node 21), m
         66     1.39659896851E+002                                                     F               0         Z-component position of node 22 (blade 1, node 21), m
         67     8.63793563843E+000                                                     F               0         X-component position of node 23 (blade 1, node 22), m
         68     8.87137451172E+001                                                     F               0         Y-component position of node 23 (blade 1, node 22), m
         69     1.39247344971E+002                                                     F               0         Z-component position of node 23 (blade 1, node 22), m
         70     8.55257415771E+000                                                     F               0         X-component position of node 24 (blade 1, node 23), m
         71     9.25582504272E+001                                                     F               0         Y-component position of node 24 (blade 1, node 23), m
         72     1.38834869385E+002                                                     F               0         Z-component position of node 24 (blade 1, node 23), m
         73     8.46721553802E+000                                                     F               0         X-component position of node 25 (blade 1, node 24), m
         74     9.64027404785E+001                                                     F               0         Y-component position of node 25 (blade 1, node 24), m
         75     1.38422393799E+002                                                     F               0         Z-component position of node 25 (blade 1, node 24), m
         76     8.38185691833E+000                                                     F               0         X-component position of node 26 (blade 1, node 25), m
         77     1.00247230530E+002                                                     F               0         Y-component position of node 26 (blade 1, node 25), m
         78     1.38009918213E+002                                                     F               0         Z-component position of node 26 (blade 1, node 25), m
         79     8.29648208618E+000                                                     F               0         X-component position of node 27 (blade 1, node 26), m
         80     1.04092422485E+002                                                     F               0         Y-component position of node 27 (blade 1, node 26), m
         81     1.37597366333E+002                                                     F               0         Z-component position of node 27 (blade 1, node 26), m
         82     8.21112251282E+000                                                     F               0         X-component position of node 28 (blade 1, node 27), m
         83     1.07936904907E+002                                                     F               0         Y-component position of node 28 (blade 1, node 27), m
         84     1.37184890747E+002                                                     F               0         Z-component position of node 28 (blade 1, node 27), m
         85     8.13875389099E+000                                                     F               0         X-component position of node 29 (blade 1, node 28), m
         86     1.11196220398E+002                                                     F               0         Y-component position of node 29 (blade 1, node 28), m
         87     1.36835205078E+002                                                     F               0         Z-component position of node 29 (blade 1, node 28), m
         88     1.18492078781E+001                                                     F               0         X-component position of node 30 (blade 2, node 1), m
         89    -1.14452171326E+001                                                     F               0         Y-component position of node 30 (blade 2, node 1), m
         90     1.54717819214E+002                                                     F               0         Z-component position of node 30 (blade 2, node 1), m
         91     1.20990724564E+001                                                     F               0         X-component position of node 31 (blade 2, node 2), m
         92    -1.19827842712E+001                                                     F               0         Y-component position of node 31 (blade 2, node 2), m
         93     1.55913864136E+002                                                     F               0         Z-component position of node 31 (blade 2, node 2), m
         94     1.54968099594E+001                                                     F               0         X-component position of node 32 (blade 2, node 3), m
         95    -1.92928695679E+001                                                     F               0         Y-component position of node 32 (blade 2, node 3), m
         96     1.72178176880E+002                                                     F               0         Z-component position of node 32 (blade 2, node 3), m
         97     1.62207221985E+001                                                     F               0         X-component position of node 33 (blade 2, node 4), m
         98    -2.08503360748E+001                                                     F               0         Y-component position of node 33 (blade 2, node 4), m
         99     1.75643417358E+002                                                     F               0         Z-component position of node 33 (blade 2, node 4), m
        100     1.69447669983E+001                                                     F               0         X-component position of node 34 (blade 2, node 5), m
        101    -2.24080734253E+001                                                     F               0         Y-component position of node 34 (blade 2, node 5), m
        102     1.79109268188E+002                                                     F               0         Z-component position of node 34 (blade 2, node 5), m
        103     1.76686801910E+001                                                     F               0         X-component position of node 35 (blade 2, node 6), m
        104    -2.39655418396E+001                                                     F               0         Y-component position of node 35 (blade 2, node 6), m
        105     1.82574493408E+002                                                     F               0         Z-component position of node 35 (blade 2, node 6), m
        106     1.83925933838E+001                                                     F               0         X-component position of node 36 (blade 2, node 7), m
        107    -2.55230083466E+001                                                     F               0         Y-component position of node 36 (blade 2, node 7), m
        108     1.86039733887E+002                                                     F               0         Z-component position of node 36 (blade 2, node 7), m
        109     1.91166381836E+001                                                     F               0         X-component position of node 37 (blade 2, node 8), m
        110    -2.70807476044E+001                                                     F               0         Y-component position of node 37 (blade 2, node 8), m
        111     1.89505584717E+002                                                     F               0         Z-component position of node 37 (blade 2, node 8), m
        112     1.98405494690E+001                                                     F               0         X-component position of node 38 (blade 2, node 9), m
        113    -2.86382141113E+001                                                     F               0         Y-component position of node 38 (blade 2, node 9), m
        114     1.92970809937E+002                                                     F               0         Z-component position of node 38 (blade 2, node 9), m
        115     2.05644626617E+001                                                     F               0         X-component position of node 39 (blade 2, node 10), m
        116    -3.01956748962E+001                                                     F               0         Y-component position of node 39 (blade 2, node 10), m
        117     1.96436035156E+002                                                     F               0         Z-component position of node 39 (blade 2, node 10), m
        118     2.12883758545E+001                                                     F               0         X-component position of node 40 (blade 2, node 11), m
        119    -3.17531414032E+001                                                     F               0         Y-component position of node 40 (blade 2, node 11), m
        120     1.99901275635E+002                                                     F               0         Z-component position of node 40 (blade 2, node 11), m
        121     2.20124225616E+001                                                     F               0         X-component position of node 41 (blade 2, node 12), m
        122    -3.33108787537E+001                                                     F               0         Y-component position of node 41 (blade 2, node 12), m
        123     2.03367126465E+002                                                     F               0         Z-component position of node 41 (blade 2, node 12), m
        124     2.27363338470E+001                                                     F               0         X-component position of node 42 (blade 2, node 13), m
        125    -3.48683471680E+001                                                     F               0         Y-component position of node 42 (blade 2, node 13), m
        126     2.06832351685E+002                                                     F               0         Z-component position of node 42 (blade 2, node 13), m
        127     2.34602470398E+001                                                     F               0         X-component position of node 43 (blade 2, node 14), m
        128    -3.64258079529E+001                                                     F               0         Y-component position of node 43 (blade 2, node 14), m
        129     2.10297592163E+002                                                     F               0         Z-component position of node 43 (blade 2, node 14), m
        130     2.41842899323E+001                                                     F               0         X-component position of node 44 (blade 2, node 15), m
        131    -3.79835586548E+001                                                     F               0         Y-component position of node 44 (blade 2, node 15), m
        132     2.13763442993E+002                                                     F               0         Z-component position of node 44 (blade 2, node 15), m
        133     2.49082012177E+001                                                     F               0         X-component position of node 45 (blade 2, node 16), m
        134    -3.95410270691E+001                                                     F               0         Y-component position of node 45 (blade 2, node 16), m
        135     2.17228668213E+002                                                     F               0         Z-component position of node 45 (blade 2, node 16), m
        136     2.56321144104E+001                                                     F               0         X-component position of node 46 (blade 2, node 17), m
        137    -4.10984916687E+001                                                     F               0         Y-component position of node 46 (blade 2, node 17), m
        138     2.20693893433E+002                                                     F               0         Z-component position of node 46 (blade 2, node 17), m
        139     2.63560276031E+001                                                     F               0         X-component position of node 47 (blade 2, node 18), m
        140    -4.26559524536E+001                                                     F               0         Y-component position of node 47 (blade 2, node 18), m
        141     2.24159118652E+002                                                     F               0         Z-component position of node 47 (blade 2, node 18), m
        142     2.70800724030E+001                                                     F               0         X-component position of node 48 (blade 2, node 19), m
        143    -4.42136917114E+001                                                     F               0         Y-component position of node 48 (blade 2, node 19), m
        144     2.27624984741E+002                                                     F               0         Z-component position of node 48 (blade 2, node 19), m
        145     2.78039855957E+001                                                     F               0         X-component position of node 49 (blade 2, node 20), m
        146    -4.57711601257E+001                                                     F               0         Y-component position of node 49 (blade 2, node 20), m
        147     2.31090209961E+002                                                     F               0         Z-component position of node 49 (blade 2, node 20), m
        148     2.85279006958E+001                                                     F               0         X-component position of node 50 (blade 2, node 21), m
        149    -4.73286209106E+001                                                     F               0         Y-component position of node 50 (blade 2, node 21), m
        150     2.34555450439E+002                                                     F               0         Z-component position of node 50 (blade 2, node 21), m
        151     2.92519435883E+001                                                     F               0         X-component position of node 51 (blade 2, node 22), m
        152    -4.88863677979E+001                                                     F               0         Y-component position of node 51 (blade 2, node 22), m
        153     2.38021301270E+002                                                     F               0         Z-component position of node 51 (blade 2, node 22), m
        154     2.99758548737E+001                                                     F               0         X-component position of node 52 (blade 2, node 23), m
        155    -5.04438362122E+001                                                     F               0         Y-component position of node 52 (blade 2, node 23), m
        156     2.41486526489E+002                                                     F               0         Z-component position of node 52 (blade 2, node 23), m
        157     3.06997680664E+001                                                     F               0         X-component position of node 53 (blade 2, node 24), m
        158    -5.20012969971E+001                                                     F               0         Y-component position of node 53 (blade 2, node 24), m
        159     2.44951751709E+002                                                     F               0         Z-component position of node 53 (blade 2, node 24), m
        160     3.14236812592E+001                                                     F               0         X-component position of node 54 (blade 2, node 25), m
        161    -5.35587577820E+001                                                     F               0         Y-component position of node 54 (blade 2, node 25), m
        162     2.48416976929E+002                                                     F               0         Z-component position of node 54 (blade 2, node 25), m
        163     3.21477241516E+001                                                     F               0         X-component position of node 55 (blade 2, node 26), m
        164    -5.51165122986E+001                                                     F               0         Y-component position of node 55 (blade 2, node 26), m
        165     2.51882843018E+002                                                     F               0         Z-component position of node 55 (blade 2, node 26), m
        166     3.28716392517E+001                                                     F               0         X-component position of node 56 (blade 2, node 27), m
        167    -5.66739768982E+001                                                     F               0         Y-component position of node 56 (blade 2, node 27), m
        168     2.55348068237E+002                                                     F               0         Z-component position of node 56 (blade 2, node 27), m
        169     3.34853591919E+001                                                     F               0         X-component position of node 57 (blade 2, node 28), m
        170    -5.79943618774E+001                                                     F               0         Y-component position of node 57 (blade 2, node 28), m
        171     2.58285827637E+002                                                     F               0         Z-component position of node 57 (blade 2, node 28), m
        172     9.89754390717E+000                                                     F               0         X-component position of node 58 (blade 3, node 1), m