
Linearized model: Predictions were generated on 13-Feb-2024 at 12:12:09 using OpenFAST, compiled as a 64-bit application using single precision at commit v3.5.1
 linked with  NWTC Subroutine Library; ElastoDyn; InflowWind; AeroDyn; ServoDyn; HydroDyn; MAP++ (<1.20.10>, <Oct-20-2023>)

Description from the FAST input file: CCT-9 Campign 4 model. Input files to be run with OpenFAST 3.5.0. GitHub branch from Lu Wang (https://github.com/luwang00/openfast/tree/dev) compiled on March 7, 2023.

Simulation information:
   Simulation time:                   772.8750 s
   Rotor Speed:                         0.7914 rad/s
   Azimuth:                             1.9316 rad
   Wind Speed:                         24.0000 m/s
   Number of continuous states:         0
   Number of discrete states:           0
   Number of constraint states:         0
   Number of inputs:                 1746
   Number of outputs:                   4
   Jacobians included in this file?    No

Order of inputs:
     Column   Operating Point                                                   Rotating Frame? Derivative Order Description
   ---------- ---------------                                                   --------------- ---------------- -----------
          1     8.55494308472E+000                                                     F               0         Tower X translation displacement, node 1, m
          2    -1.82520723343E+000                                                     F               0         Tower Y translation displacement, node 1, m
          3    -2.14157015085E-001                                                     F               0         Tower Z translation displacement, node 1, m
          4     9.72856140137E+000                                                     F               0         Tower X translation displacement, node 2, m
          5    -2.50120377541E+000                                                     F               0         Tower Y translation displacement, node 2, m
          6    -2.88619875908E-001                                                     F               0         Tower Z translation displacement, node 2, m
          7     1.09203987122E+001                                                     F               0         Tower X translation displacement, node 3, m
          8    -3.18520951271E+000                                                     F               0         Tower Y translation displacement, node 3, m
          9    -3.65276992321E-001                                                     F               0         Tower Z translation displacement, node 3, m
         10     1.21258888245E+001                                                     F               0         Tower X translation displacement, node 4, m
         11    -3.87580227852E+000                                                     F               0         Tower Y translation displacement, node 4, m
         12    -4.43635791540E-001                                                     F               0         Tower Z translation displacement, node 4, m
         13     1.33424911499E+001                                                     F               0         Tower X translation displacement, node 5, m
         14    -4.57234477997E+000                                                     F               0         Tower Y translation displacement, node 5, m
         15    -5.23423910141E-001                                                     F               0         Tower Z translation displacement, node 5, m
         16     1.45678329468E+001                                                     F               0         Tower X translation displacement, node 6, m
         17    -5.27416324615E+000                                                     F               0         Tower Y translation displacement, node 6, m
         18    -6.04392647743E-001                                                     F               0         Tower Z translation displacement, node 6, m
         19     1.57993535995E+001                                                     F               0         Tower X translation displacement, node 7, m
         20    -5.98021554947E+000                                                     F               0         Tower Y translation displacement, node 7, m
         21    -6.86208307743E-001                                                     F               0         Tower Z translation displacement, node 7, m
         22     1.70358428955E+001                                                     F               0         Tower X translation displacement, node 8, m
         23    -6.69016361237E+000                                                     F               0         Tower Y translation displacement, node 8, m
         24    -7.68760561943E-001                                                     F               0         Tower Z translation displacement, node 8, m
         25     1.82757034302E+001                                                     F               0         Tower X translation displacement, node 9, m
         26    -7.40319967270E+000                                                     F               0         Tower Y translation displacement, node 9, m
         27    -8.51822555065E-001                                                     F               0         Tower Z translation displacement, node 9, m
         28     1.95176296234E+001                                                     F               0         Tower X translation displacement, node 10, m
         29    -8.11846828461E+000                                                     F               0         Tower Y translation displacement, node 10, m
         30    -9.35229599476E-001                                                     F               0         Tower Z translation displacement, node 10, m
         31     2.07605800629E+001                                                     F               0         Tower X translation displacement, node 11, m
         32    -8.83513259888E+000                                                     F               0         Tower Y translation displacement, node 11, m
         33    -1.01881885529E+000                                                     F               0         Tower Z translation displacement, node 11, m
         34     9.95464205742E-001,  -6.69380323961E-003,  -9.49013456702E-002         F               0         Tower X orientation angle, node 1, rad
         35     1.18228653446E-002,   9.98493194580E-001,   5.35874664783E-002         F               0         Tower Y orientation angle, node 1, rad
         36     9.43996384740E-002,  -5.44664077461E-002,   9.94043290615E-001         F               0         Tower Z orientation angle, node 1, rad
         37     9.95330393314E-001,  -6.61677028984E-003,  -9.62994247675E-002         F               0         Tower X orientation angle, node 2, rad
         38     1.18790222332E-002,   9.98460829258E-001,   5.41744232178E-002         F               0         Tower Y orientation angle, node 2, rad
         39     9.57927405834E-002,  -5.50653971732E-002,   9.93877053261E-001         F               0         Tower Z orientation angle, node 2, rad
         40     9.95212793350E-001,  -6.54920563102E-003,  -9.75122377276E-002         F               0         Tower X orientation angle, node 3, rad
         41     1.19318319485E-002,   9.98430490494E-001,   5.47191277146E-002         F               0         Tower Y orientation angle, node 3, rad
         42     9.70008298755E-002,  -5.56206740439E-002,   9.93728935719E-001         F               0         Tower Z orientation angle, node 3, rad
         43     9.95113790035E-001,  -6.49240193889E-003,  -9.85210388899E-002         F               0         Tower X orientation angle, node 4, rad
         44     1.19805214927E-002,   9.98402535915E-001,   5.52161410451E-002         F               0         Tower Y orientation angle, node 4, rad
         45     9.80051755905E-002,  -5.61266764998E-002,   9.93601918221E-001         F               0         Tower Z orientation angle, node 4, rad
         46     9.95033144951E-001,  -6.44607795402E-003,  -9.93351340294E-002         F               0         Tower X orientation angle, node 5, rad
         47     1.20246857405E-002,   9.98377144337E-001,   5.56635223329E-002         F               0         Tower Y orientation angle, node 5, rad
         48     9.88151207566E-002,  -5.65815232694E-002,   9.93495881557E-001         F               0         Tower Z orientation angle, node 5, rad
         49     9.94969844818E-001,  -6.40960317105E-003,  -9.99694541097E-002         F               0         Tower X orientation angle, node 6, rad
         50     1.20638478547E-002,   9.98354613781E-001,   5.60582019389E-002         F               0         Tower Y orientation angle, node 6, rad
         51     9.94456559420E-002,  -5.69822378457E-002,   9.93410050869E-001         F               0         Tower Z orientation angle, node 6, rad
         52     9.94923472404E-001,  -6.38274289668E-003,  -1.00431501865E-001         F               0         Tower X orientation angle, node 7, rad
         53     1.20970029384E-002,   9.98335421085E-001,   5.63914030790E-002         F               0         Tower Y orientation angle, node 7, rad
         54     9.99043956399E-002,  -5.73200546205E-002,   9.93344604969E-001         F               0         Tower Z orientation angle, node 7, rad
         55     9.94890630245E-001,  -6.36355159804E-003,  -1.00758112967E-001         F               0         Tower X orientation angle, node 8, rad
         56     1.21241239831E-002,   9.98319685459E-001,   5.66636063159E-002         F               0         Tower Y orientation angle, node 8, rad
         57     1.00228227675E-001,  -5.75956925750E-002,   9.93296027184E-001         F               0         Tower Z orientation angle, node 8, rad
         58     9.94868993759E-001,  -6.35083392262E-003,  -1.00972175598E-001         F               0         Tower X orientation angle, node 9, rad
         59     1.21448095888E-002,   9.98307645321E-001,   5.68711943924E-002         F               0         Tower Y orientation angle, node 9, rad
         60     1.00440114737E-001,  -5.78056760132E-002,   9.93262469769E-001         F               0         Tower Z orientation angle, node 9, rad
         61     9.94856476784E-001,  -6.34340103716E-003,  -1.01095862687E-001         F               0         Tower X orientation angle, node 10, rad
         62     1.21587617323E-002,   9.98299479485E-001,   5.70113174617E-002         F               0         Tower Y orientation angle, node 10, rad
         63     1.00562296808E-001,  -5.79472780228E-002,   9.93241846561E-001         F               0         Tower Z orientation angle, node 10, rad
         64     9.94850516319E-001,  -6.33981917053E-003,  -1.01154752076E-001         F               0         Tower X orientation angle, node 11, rad
         65     1.21665438637E-002,   9.98294949532E-001,   5.70895858109E-002         F               0         Tower Y orientation angle, node 11, rad
         66     1.00620336831E-001,  -5.80263063312E-002,   9.93231356144E-001         F               0         Tower Z orientation angle, node 11, rad
         67    -9.21370554715E-003                                                     F               0         Tower X translation velocity, node 1, m/s
         68     2.68189120106E-003                                                     F               0         Tower Y translation velocity, node 1, m/s
         69     4.86204313347E-004                                                     F               0         Tower Z translation velocity, node 1, m/s
         70    -1.15854134783E-002                                                     F               0         Tower X translation velocity, node 2, m/s
         71     3.28425900079E-003                                                     F               0         Tower Y translation velocity, node 2, m/s
         72     7.45733443182E-004                                                     F               0         Tower Z translation velocity, node 2, m/s
         73    -1.22529538348E-002                                                     F               0         Tower X translation velocity, node 3, m/s
         74     3.57645191252E-003                                                     F               0         Tower Y translation velocity, node 3, m/s
         75     8.26814386528E-004                                                     F               0         Tower Z translation velocity, node 3, m/s
         76    -1.15891816095E-002                                                     F               0         Tower X translation velocity, node 4, m/s
         77     3.63255175762E-003                                                     F               0         Tower Y translation velocity, node 4, m/s
         78     7.64815427829E-004                                                     F               0         Tower Z translation velocity, node 4, m/s
         79    -9.78724658489E-003                                                     F               0         Tower X translation velocity, node 5, m/s
         80     3.49274207838E-003                                                     F               0         Tower Y translation velocity, node 5, m/s
         81     5.78323320951E-004                                                     F               0         Tower Z translation velocity, node 5, m/s
         82    -7.03421188518E-003                                                     F               0         Tower X translation velocity, node 6, m/s
         83     3.19485133514E-003                                                     F               0         Tower Y translation velocity, node 6, m/s
         84     2.86487862468E-004                                                     F               0         Tower Z translation velocity, node 6, m/s
         85    -3.56178102084E-003                                                     F               0         Tower X translation velocity, node 7, m/s
         86     2.78176995926E-003                                                     F               0         Tower Y translation velocity, node 7, m/s
         87    -8.56352780829E-005                                                     F               0         Tower Z translation velocity, node 7, m/s
         88     5.36202336662E-004                                                     F               0         Tower X translation velocity, node 8, m/s
         89     2.27236212231E-003                                                     F               0         Tower Y translation velocity, node 8, m/s
         90    -5.27881144080E-004                                                     F               0         Tower Z translation velocity, node 8, m/s
         91     5.10107493028E-003                                                     F               0         Tower X translation velocity, node 9, m/s
         92     1.69410661329E-003                                                     F               0         Tower Y translation velocity, node 9, m/s
         93    -1.02256156970E-003                                                     F               0         Tower Z translation velocity, node 9, m/s
         94     9.98625531793E-003                                                     F               0         Tower X translation velocity, node 10, m/s
         95     1.07041257434E-003                                                     F               0         Tower Y translation velocity, node 10, m/s
         96    -1.55320018530E-003                                                     F               0         Tower Z translation velocity, node 10, m/s
         97     1.50585183874E-002                                                     F               0         Tower X translation velocity, node 11, m/s
         98     4.19871357735E-004                                                     F               0         Tower Y translation velocity, node 11, m/s
         99    -2.10485630669E-003                                                     F               0         Tower Z translation velocity, node 11, m/s
        100     2.16060848236E+001                                                     F               0         Hub X translation displacement, node 1, m
        101    -9.22217655182E+000                                                     F               0         Hub Y translation displacement, node 1, m
        102     2.05739643425E-002                                                     F               0         Hub Z translation displacement, node 1, m
        103     9.78882908821E-001,  -2.39688291913E-004,  -2.04421564937E-001         F               0         Hub X orientation angle, node 1, rad
        104     1.86627089977E-001,  -4.07020151615E-001,   8.94150376320E-001         F               0         Hub Y orientation angle, node 1, rad
        105    -8.34180116653E-002,  -9.13419127464E-001,  -3.98380339146E-001         F               0         Hub Z orientation angle, node 1, rad
        106     7.74771392345E-001                                                     F               0         Hub X rotation velocity, node 1, rad/s
        107     2.26460368140E-004                                                     F               0         Hub Y rotation velocity, node 1, rad/s
        108    -1.61778375506E-001                                                     F               0         Hub Z rotation velocity, node 1, rad/s
        109     8.82418215275E-001,   1.18039600551E-001,  -4.55417066813E-001         F               0         Blade root 1 X orientation angle, node 1, rad
        110     4.63011324406E-001,  -3.89528065920E-001,   7.96171069145E-001         F               0         Blade root 1 Y orientation angle, node 1, rad
        111    -8.34180116653E-002,  -9.13419127464E-001,  -3.98380339146E-001         F               0         Blade root 1 Z orientation angle, node 1, rad
        112     9.84752953053E-001,   1.70492038131E-001,   3.45562398434E-002         F               0         Blade root 2 X orientation angle, node 1, rad
        113     1.26024246216E-001,  -5.62253355980E-001,  -8.17305982113E-001         F               0         Blade root 2 Y orientation angle, node 1, rad
        114    -1.19914792478E-001,   8.09199333191E-001,  -5.75166821480E-001         F               0         Blade root 2 Z orientation angle, node 1, rad
        115     9.42769765854E-001,  -2.89219677448E-001,  -1.65943279862E-001         F               0         Blade root 3 X orientation angle, node 1, rad
        116     2.64274418354E-001,   9.51572477818E-001,  -1.57063111663E-001         F               0         Blade root 3 Y orientation angle, node 1, rad
        117     2.03332796693E-001,   1.04219794273E-001,   9.73547101021E-001         F               0         Blade root 3 Z orientation angle, node 1, rad
        118     2.05648612976E+001                                                     F               0         Blade 1 X translation displacement, node 1, m
        119    -1.42825183868E+001                                                     F               0         Blade 1 Y translation displacement, node 1, m
        120    -7.69611167908E+000                                                     F               0         Blade 1 Z translation displacement, node 1, m
        121     2.03139705658E+001                                                     F               0         Blade 1 X translation displacement, node 2, m
        122    -1.55018472672E+001                                                     F               0         Blade 1 Y translation displacement, node 2, m
        123    -9.55550289154E+000                                                     F               0         Blade 1 Z translation displacement, node 2, m
        124     1.69022903442E+001                                                     F               0         Blade 1 X translation displacement, node 3, m
        125    -3.20826034546E+001                                                     F               0         Blade 1 Y translation displacement, node 3, m
        126    -3.48400268555E+001                                                     F               0         Blade 1 Z translation displacement, node 3, m
        127     1.61754112244E+001                                                     F               0         Blade 1 X translation displacement, node 4, m
        128    -3.56152305603E+001                                                     F               0         Blade 1 Y translation displacement, node 4, m
        129    -4.02270545959E+001                                                     F               0         Blade 1 Z translation displacement, node 4, m
        130     1.54483938217E+001                                                     F               0         Blade 1 X translation displacement, node 5, m
        131    -3.91485328674E+001                                                     F               0         Blade 1 Y translation displacement, node 5, m
        132    -4.56150894165E+001                                                     F               0         Blade 1 Z translation displacement, node 5, m
        133     1.47215118408E+001                                                     F               0         Blade 1 X translation displacement, node 6, m
        134    -4.26811752319E+001                                                     F               0         Blade 1 Y translation displacement, node 6, m
        135    -5.10021362305E+001                                                     F               0         Blade 1 Z translation displacement, node 6, m
        136     1.39946279526E+001                                                     F               0         Blade 1 X translation displacement, node 7, m
        137    -4.62138290405E+001                                                     F               0         Blade 1 Y translation displacement, node 7, m
        138    -5.63891868591E+001                                                     F               0         Blade 1 Z translation displacement, node 7, m
        139     1.32676134109E+001                                                     F               0         Blade 1 X translation displacement, node 8, m
        140    -4.97471122742E+001                                                     F               0         Blade 1 Y translation displacement, node 8, m
        141    -6.17772178650E+001                                                     F               0         Blade 1 Z translation displacement, node 8, m
        142     1.25407295227E+001                                                     F               0         Blade 1 X translation displacement, node 9, m
        143    -5.32797698975E+001                                                     F               0         Blade 1 Y translation displacement, node 9, m
        144    -6.71642684937E+001                                                     F               0         Blade 1 Z translation displacement, node 9, m
        145     1.18138475418E+001                                                     F               0         Blade 1 X translation displacement, node 10, m
        146    -5.68124122620E+001                                                     F               0         Blade 1 Y translation displacement, node 10, m
        147    -7.25513153076E+001                                                     F               0         Blade 1 Z translation displacement, node 10, m
        148     1.10869636536E+001                                                     F               0         Blade 1 X translation displacement, node 11, m
        149    -6.03450660706E+001                                                     F               0         Blade 1 Y translation displacement, node 11, m
        150    -7.79383697510E+001                                                     F               0         Blade 1 Z translation displacement, node 11, m
        151     1.03599519730E+001                                                     F               0         Blade 1 X translation displacement, node 12, m
        152    -6.38783378601E+001                                                     F               0         Blade 1 Y translation displacement, node 12, m
        153    -8.33263778687E+001                                                     F               0         Blade 1 Z translation displacement, node 12, m
        154     9.63306713104E+000                                                     F               0         Blade 1 X translation displacement, node 13, m
        155    -6.74109954834E+001                                                     F               0         Blade 1 Y translation displacement, node 13, m
        156    -8.87134323120E+001                                                     F               0         Blade 1 Z translation displacement, node 13, m
        157     8.90618610382E+000                                                     F               0         Blade 1 X translation displacement, node 14, m
        158    -7.09436340332E+001                                                     F               0         Blade 1 Y translation displacement, node 14, m
        159    -9.41004791260E+001                                                     F               0         Blade 1 Z translation displacement, node 14, m
        160     8.17916965485E+000                                                     F               0         Blade 1 X translation displacement, node 15, m
        161    -7.44769287109E+001                                                     F               0         Blade 1 Y translation displacement, node 15, m
        162    -9.94885025024E+001                                                     F               0         Blade 1 Z translation displacement, node 15, m
        163     7.45228767395E+000                                                     F               0         Blade 1 X translation displacement, node 16, m
        164    -7.80095748901E+001                                                     F               0         Blade 1 Y translation displacement, node 16, m
        165    -1.04875556946E+002                                                     F               0         Blade 1 Z translation displacement, node 16, m
        166     6.72540283203E+000                                                     F               0         Blade 1 X translation displacement, node 17, m
        167    -8.15422363281E+001                                                     F               0         Blade 1 Y translation displacement, node 17, m
        168    -1.10262611389E+002                                                     F               0         Blade 1 Z translation displacement, node 17, m
        169     5.99852085114E+000                                                     F               0         Blade 1 X translation displacement, node 18, m
        170    -8.50748825073E+001                                                     F               0         Blade 1 Y translation displacement, node 18, m
        171    -1.15649658203E+002                                                     F               0         Blade 1 Z translation displacement, node 18, m
        172     5.27150869370E+000                                                     F               0         Blade 1 X translation displacement, node 19, m
        173    -8.86081542969E+001                                                     F               0         Blade 1 Y translation displacement, node 19, m
        174    -1.21037666321E+002                                                     F               0         Blade 1 Z translation displacement, node 19, m
        175     4.54462385178E+000                                                     F               0         Blade 1 X translation displacement, node 20, m
        176    -9.21408081055E+001                                                     F               0         Blade 1 Y translation displacement, node 20, m
        177    -1.26424720764E+002                                                     F               0         Blade 1 Z translation displacement, node 20, m
        178     3.81774163246E+000                                                     F               0         Blade 1 X translation displacement, node 21, m
        179    -9.56734619141E+001                                                     F               0         Blade 1 Y translation displacement, node 21, m
        180    -1.31811767578E+002                                                     F               0         Blade 1 Z translation displacement, node 21, m
        181     3.09072685242E+000                                                     F               0         Blade 1 X translation displacement, node 22, m
        182    -9.92067489624E+001                                                     F               0         Blade 1 Y translation displacement, node 22, m
        183    -1.37199798584E+002                                                     F               0         Blade 1 Z translation displacement, node 22, m