
Linearized model: Predictions were generated on 06-Feb-2024 at 08:44:08 using OpenFAST, compiled as a 64-bit application using single precision at commit v3.5.1
 linked with  NWTC Subroutine Library; ElastoDyn; InflowWind; AeroDyn; ServoDyn; HydroDyn; MAP++ (<1.20.10>, <Oct-20-2023>)

Description from the FAST input file: CCT-9 Campign 4 model. Input files to be run with OpenFAST 3.5.0. GitHub branch from Lu Wang (https://github.com/luwang00/openfast/tree/dev) compiled on March 7, 2023.

Simulation information:
   Simulation time:                  2505.7750 s
   Rotor Speed:                         0.8851 rad/s
   Azimuth:                             1.9815 rad
   Wind Speed:                         10.0000 m/s
   Number of continuous states:         0
   Number of discrete states:           0
   Number of constraint states:         0
   Number of inputs:                  303
   Number of outputs:                   1
   Jacobians included in this file?    No

Order of inputs:
     Column   Operating Point                     Rotating Frame? Derivative Order Description
   ---------- ---------------                     --------------- ---------------- -----------
          1   -1.080E+01                                 F               0         X-component position of node 1 (hub), m
          2    0.000E+00                                 F               0         Y-component position of node 1 (hub), m
          3    1.497E+02                                 F               0         Z-component position of node 1 (hub), m
          4    1.369E+01                                 F               0         X-component position of node 2 (blade 1, node 1), m
          5   -4.580E+00                                 F               0         Y-component position of node 2 (blade 1, node 1), m
          6    1.479E+02                                 F               0         Z-component position of node 2 (blade 1, node 1), m
          7    1.359E+01                                 F               0         X-component position of node 3 (blade 1, node 2), m
          8   -5.806E+00                                 F               0         Y-component position of node 3 (blade 1, node 2), m
          9    1.473E+02                                 F               0         Z-component position of node 3 (blade 1, node 2), m
         10    1.224E+01                                 F               0         X-component position of node 4 (blade 1, node 3), m
         11   -2.247E+01                                 F               0         Y-component position of node 4 (blade 1, node 3), m
         12    1.403E+02                                 F               0         Z-component position of node 4 (blade 1, node 3), m
         13    1.196E+01                                 F               0         X-component position of node 5 (blade 1, node 4), m
         14   -2.603E+01                                 F               0         Y-component position of node 5 (blade 1, node 4), m
         15    1.388E+02                                 F               0         Z-component position of node 5 (blade 1, node 4), m
         16    1.167E+01                                 F               0         X-component position of node 6 (blade 1, node 5), m
         17   -2.958E+01                                 F               0         Y-component position of node 6 (blade 1, node 5), m
         18    1.373E+02                                 F               0         Z-component position of node 6 (blade 1, node 5), m
         19    1.138E+01                                 F               0         X-component position of node 7 (blade 1, node 6), m
         20   -3.313E+01                                 F               0         Y-component position of node 7 (blade 1, node 6), m
         21    1.358E+02                                 F               0         Z-component position of node 7 (blade 1, node 6), m
         22    1.110E+01                                 F               0         X-component position of node 8 (blade 1, node 7), m
         23   -3.668E+01                                 F               0         Y-component position of node 8 (blade 1, node 7), m
         24    1.343E+02                                 F               0         Z-component position of node 8 (blade 1, node 7), m
         25    1.081E+01                                 F               0         X-component position of node 9 (blade 1, node 8), m
         26   -4.023E+01                                 F               0         Y-component position of node 9 (blade 1, node 8), m
         27    1.328E+02                                 F               0         Z-component position of node 9 (blade 1, node 8), m
         28    1.052E+01                                 F               0         X-component position of node 10 (blade 1, node 9), m
         29   -4.378E+01                                 F               0         Y-component position of node 10 (blade 1, node 9), m
         30    1.313E+02                                 F               0         Z-component position of node 10 (blade 1, node 9), m
         31    1.024E+01                                 F               0         X-component position of node 11 (blade 1, node 10), m
         32   -4.733E+01                                 F               0         Y-component position of node 11 (blade 1, node 10), m
         33    1.297E+02                                 F               0         Z-component position of node 11 (blade 1, node 10), m
         34    9.949E+00                                 F               0         X-component position of node 12 (blade 1, node 11), m
         35   -5.089E+01                                 F               0         Y-component position of node 12 (blade 1, node 11), m
         36    1.282E+02                                 F               0         Z-component position of node 12 (blade 1, node 11), m
         37    9.663E+00                                 F               0         X-component position of node 13 (blade 1, node 12), m
         38   -5.444E+01                                 F               0         Y-component position of node 13 (blade 1, node 12), m
         39    1.267E+02                                 F               0         Z-component position of node 13 (blade 1, node 12), m
         40    9.376E+00                                 F               0         X-component position of node 14 (blade 1, node 13), m
         41   -5.799E+01                                 F               0         Y-component position of node 14 (blade 1, node 13), m
         42    1.252E+02                                 F               0         Z-component position of node 14 (blade 1, node 13), m
         43    9.090E+00                                 F               0         X-component position of node 15 (blade 1, node 14), m
         44   -6.154E+01                                 F               0         Y-component position of node 15 (blade 1, node 14), m
         45    1.237E+02                                 F               0         Z-component position of node 15 (blade 1, node 14), m
         46    8.803E+00                                 F               0         X-component position of node 16 (blade 1, node 15), m
         47   -6.509E+01                                 F               0         Y-component position of node 16 (blade 1, node 15), m
         48    1.222E+02                                 F               0         Z-component position of node 16 (blade 1, node 15), m
         49    8.517E+00                                 F               0         X-component position of node 17 (blade 1, node 16), m
         50   -6.864E+01                                 F               0         Y-component position of node 17 (blade 1, node 16), m
         51    1.207E+02                                 F               0         Z-component position of node 17 (blade 1, node 16), m
         52    8.230E+00                                 F               0         X-component position of node 18 (blade 1, node 17), m
         53   -7.219E+01                                 F               0         Y-component position of node 18 (blade 1, node 17), m
         54    1.192E+02                                 F               0         Z-component position of node 18 (blade 1, node 17), m
         55    7.943E+00                                 F               0         X-component position of node 19 (blade 1, node 18), m
         56   -7.575E+01                                 F               0         Y-component position of node 19 (blade 1, node 18), m
         57    1.177E+02                                 F               0         Z-component position of node 19 (blade 1, node 18), m
         58    7.657E+00                                 F               0         X-component position of node 20 (blade 1, node 19), m
         59   -7.930E+01                                 F               0         Y-component position of node 20 (blade 1, node 19), m
         60    1.162E+02                                 F               0         Z-component position of node 20 (blade 1, node 19), m
         61    7.370E+00                                 F               0         X-component position of node 21 (blade 1, node 20), m
         62   -8.285E+01                                 F               0         Y-component position of node 21 (blade 1, node 20), m
         63    1.147E+02                                 F               0         Z-component position of node 21 (blade 1, node 20), m
         64    7.084E+00                                 F               0         X-component position of node 22 (blade 1, node 21), m
         65   -8.640E+01                                 F               0         Y-component position of node 22 (blade 1, node 21), m
         66    1.132E+02                                 F               0         Z-component position of node 22 (blade 1, node 21), m
         67    6.797E+00                                 F               0         X-component position of node 23 (blade 1, node 22), m
         68   -8.995E+01                                 F               0         Y-component position of node 23 (blade 1, node 22), m
         69    1.117E+02                                 F               0         Z-component position of node 23 (blade 1, node 22), m
         70    6.511E+00                                 F               0         X-component position of node 24 (blade 1, node 23), m
         71   -9.350E+01                                 F               0         Y-component position of node 24 (blade 1, node 23), m
         72    1.102E+02                                 F               0         Z-component position of node 24 (blade 1, node 23), m
         73    6.224E+00                                 F               0         X-component position of node 25 (blade 1, node 24), m
         74   -9.705E+01                                 F               0         Y-component position of node 25 (blade 1, node 24), m
         75    1.087E+02                                 F               0         Z-component position of node 25 (blade 1, node 24), m
         76    5.938E+00                                 F               0         X-component position of node 26 (blade 1, node 25), m
         77   -1.006E+02                                 F               0         Y-component position of node 26 (blade 1, node 25), m
         78    1.072E+02                                 F               0         Z-component position of node 26 (blade 1, node 25), m
         79    5.651E+00                                 F               0         X-component position of node 27 (blade 1, node 26), m
         80   -1.042E+02                                 F               0         Y-component position of node 27 (blade 1, node 26), m
         81    1.057E+02                                 F               0         Z-component position of node 27 (blade 1, node 26), m
         82    5.365E+00                                 F               0         X-component position of node 28 (blade 1, node 27), m
         83   -1.077E+02                                 F               0         Y-component position of node 28 (blade 1, node 27), m
         84    1.042E+02                                 F               0         Z-component position of node 28 (blade 1, node 27), m
         85    5.122E+00                                 F               0         X-component position of node 29 (blade 1, node 28), m
         86   -1.107E+02                                 F               0         Y-component position of node 29 (blade 1, node 28), m
         87    1.029E+02                                 F               0         Z-component position of node 29 (blade 1, node 28), m
         88    1.347E+01                                 F               0         X-component position of node 30 (blade 2, node 1), m
         89    4.951E+00                                 F               0         Y-component position of node 30 (blade 2, node 1), m
         90    1.468E+02                                 F               0         Z-component position of node 30 (blade 2, node 1), m
         91    1.332E+01                                 F               0         X-component position of node 31 (blade 2, node 2), m
         92    6.021E+00                                 F               0         Y-component position of node 31 (blade 2, node 2), m
         93    1.460E+02                                 F               0         Z-component position of node 31 (blade 2, node 2), m
         94    1.125E+01                                 F               0         X-component position of node 32 (blade 2, node 3), m
         95    2.058E+01                                 F               0         Y-component position of node 32 (blade 2, node 3), m
         96    1.353E+02                                 F               0         Z-component position of node 32 (blade 2, node 3), m
         97    1.082E+01                                 F               0         X-component position of node 33 (blade 2, node 4), m
         98    2.368E+01                                 F               0         Y-component position of node 33 (blade 2, node 4), m
         99    1.331E+02                                 F               0         Z-component position of node 33 (blade 2, node 4), m
        100    1.038E+01                                 F               0         X-component position of node 34 (blade 2, node 5), m
        101    2.679E+01                                 F               0         Y-component position of node 34 (blade 2, node 5), m
        102    1.308E+02                                 F               0         Z-component position of node 34 (blade 2, node 5), m
        103    9.937E+00                                 F               0         X-component position of node 35 (blade 2, node 6), m
        104    2.989E+01                                 F               0         Y-component position of node 35 (blade 2, node 6), m
        105    1.285E+02                                 F               0         Z-component position of node 35 (blade 2, node 6), m
        106    9.497E+00                                 F               0         X-component position of node 36 (blade 2, node 7), m
        107    3.299E+01                                 F               0         Y-component position of node 36 (blade 2, node 7), m
        108    1.263E+02                                 F               0         Z-component position of node 36 (blade 2, node 7), m
        109    9.058E+00                                 F               0         X-component position of node 37 (blade 2, node 8), m
        110    3.609E+01                                 F               0         Y-component position of node 37 (blade 2, node 8), m
        111    1.240E+02                                 F               0         Z-component position of node 37 (blade 2, node 8), m
        112    8.619E+00                                 F               0         X-component position of node 38 (blade 2, node 9), m
        113    3.920E+01                                 F               0         Y-component position of node 38 (blade 2, node 9), m
        114    1.217E+02                                 F               0         Z-component position of node 38 (blade 2, node 9), m
        115    8.180E+00                                 F               0         X-component position of node 39 (blade 2, node 10), m
        116    4.230E+01                                 F               0         Y-component position of node 39 (blade 2, node 10), m
        117    1.195E+02                                 F               0         Z-component position of node 39 (blade 2, node 10), m
        118    7.741E+00                                 F               0         X-component position of node 40 (blade 2, node 11), m
        119    4.540E+01                                 F               0         Y-component position of node 40 (blade 2, node 11), m
        120    1.172E+02                                 F               0         Z-component position of node 40 (blade 2, node 11), m
        121    7.302E+00                                 F               0         X-component position of node 41 (blade 2, node 12), m
        122    4.850E+01                                 F               0         Y-component position of node 41 (blade 2, node 12), m
        123    1.149E+02                                 F               0         Z-component position of node 41 (blade 2, node 12), m
        124    6.862E+00                                 F               0         X-component position of node 42 (blade 2, node 13), m
        125    5.160E+01                                 F               0         Y-component position of node 42 (blade 2, node 13), m
        126    1.127E+02                                 F               0         Z-component position of node 42 (blade 2, node 13), m
        127    6.423E+00                                 F               0         X-component position of node 43 (blade 2, node 14), m
        128    5.471E+01                                 F               0         Y-component position of node 43 (blade 2, node 14), m
        129    1.104E+02                                 F               0         Z-component position of node 43 (blade 2, node 14), m
        130    5.984E+00                                 F               0         X-component position of node 44 (blade 2, node 15), m
        131    5.781E+01                                 F               0         Y-component position of node 44 (blade 2, node 15), m
        132    1.081E+02                                 F               0         Z-component position of node 44 (blade 2, node 15), m
        133    5.545E+00                                 F               0         X-component position of node 45 (blade 2, node 16), m
        134    6.091E+01                                 F               0         Y-component position of node 45 (blade 2, node 16), m
        135    1.059E+02                                 F               0         Z-component position of node 45 (blade 2, node 16), m
        136    5.106E+00                                 F               0         X-component position of node 46 (blade 2, node 17), m
        137    6.401E+01                                 F               0         Y-component position of node 46 (blade 2, node 17), m
        138    1.036E+02                                 F               0         Z-component position of node 46 (blade 2, node 17), m
        139    4.667E+00                                 F               0         X-component position of node 47 (blade 2, node 18), m
        140    6.712E+01                                 F               0         Y-component position of node 47 (blade 2, node 18), m
        141    1.013E+02                                 F               0         Z-component position of node 47 (blade 2, node 18), m
        142    4.227E+00                                 F               0         X-component position of node 48 (blade 2, node 19), m
        143    7.022E+01                                 F               0         Y-component position of node 48 (blade 2, node 19), m
        144    9.907E+01                                 F               0         Z-component position of node 48 (blade 2, node 19), m
        145    3.788E+00                                 F               0         X-component position of node 49 (blade 2, node 20), m
        146    7.332E+01                                 F               0         Y-component position of node 49 (blade 2, node 20), m
        147    9.680E+01                                 F               0         Z-component position of node 49 (blade 2, node 20), m
        148    3.349E+00                                 F               0         X-component position of node 50 (blade 2, node 21), m
        149    7.642E+01                                 F               0         Y-component position of node 50 (blade 2, node 21), m
        150    9.453E+01                                 F               0         Z-component position of node 50 (blade 2, node 21), m
        151    2.910E+00                                 F               0         X-component position of node 51 (blade 2, node 22), m
        152    7.953E+01                                 F               0         Y-component position of node 51 (blade 2, node 22), m
        153    9.226E+01                                 F               0         Z-component position of node 51 (blade 2, node 22), m
        154    2.471E+00                                 F               0         X-component position of node 52 (blade 2, node 23), m
        155    8.263E+01                                 F               0         Y-component position of node 52 (blade 2, node 23), m
        156    8.999E+01                                 F               0         Z-component position of node 52 (blade 2, node 23), m
        157    2.032E+00                                 F               0         X-component position of node 53 (blade 2, node 24), m
        158    8.573E+01                                 F               0         Y-component position of node 53 (blade 2, node 24), m
        159    8.773E+01                                 F               0         Z-component position of node 53 (blade 2, node 24), m
        160    1.592E+00                                 F               0         X-component position of node 54 (blade 2, node 25), m
        161    8.883E+01                                 F               0         Y-component position of node 54 (blade 2, node 25), m
        162    8.546E+01                                 F               0         Z-component position of node 54 (blade 2, node 25), m
        163    1.153E+00                                 F               0         X-component position of node 55 (blade 2, node 26), m
        164    9.193E+01                                 F               0         Y-component position of node 55 (blade 2, node 26), m
        165    8.319E+01                                 F               0         Z-component position of node 55 (blade 2, node 26), m
        166    7.141E-01                                 F               0         X-component position of node 56 (blade 2, node 27), m
        167    9.504E+01                                 F               0         Y-component position of node 56 (blade 2, node 27), m
        168    8.092E+01                                 F               0         Z-component position of node 56 (blade 2, node 27), m
        169    3.418E-01                                 F               0         X-component position of node 57 (blade 2, node 28), m
        170    9.767E+01                                 F               0         Y-component position of node 57 (blade 2, node 28), m
        171    7.900E+01                                 F               0         Z-component position of node 57 (blade 2, node 28), m
        172    1.514E+01                                 F               0         X-component position of node 58 (blade 3, node 1), m
        173    1.150E+00                                 F               0         Y-component position of node 58 (blade 3, node 1), m
        174    1.554E+02                                 F               0         Z-component position of node 58 (blade 3, node 1), m
        175    1.539E+01                                 F               0         X-component position of node 59 (blade 3, node 2), m
        176    1.305E+00                                 F               0         Y-component position of node 59 (blade 3, node 2), m
        177    1.567E+02                                 F               0         Z-component position of node 59 (blade 3, node 2), m
        178    1.879E+01                                 F               0         X-component position of node 60 (blade 3, node 3), m
        179    3.413E+00                                 F               0         Y-component position of node 60 (blade 3, node 3), m
        180    1.744E+02                                 F               0         Z-component position of node 60 (blade 3, node 3), m
        181    1.952E+01                                 F               0         X-component position of node 61 (blade 3, node 4), m
        182    3.863E+00                                 F               0         Y-component position of node 61 (blade 3, node 4), m
        183    1.782E+02                                 F               0         Z-component position of node 61 (blade 3, node 4), m
        184    2.024E+01                                 F               0         X-component position of node 62 (blade 3, node 5), m
        185    4.312E+00                                 F               0         Y-component position of node 62 (blade 3, node 5), m
        186    1.820E+02                                 F               0         Z-component position of node 62 (blade 3, node 5), m
        187    2.097E+01                                 F               0         X-component position of node 63 (blade 3, node 6), m
        188    4.761E+00                                 F               0         Y-component position of node 63 (blade 3, node 6), m
        189    1.857E+02                                 F               0         Z-component position of node 63 (blade 3, node 6), m
        190    2.169E+01                                 F               0         X-component position of node 64 (blade 3, node 7), m
        191    5.210E+00                                 F               0         Y-component position of node 64 (blade 3, node 7), m
        192    1.895E+02                                 F               0         Z-component position of node 64 (blade 3, node 7), m
        193    2.242E+01                                 F               0         X-component position of node 65 (blade 3, node 8), m
        194    5.659E+00                                 F               0         Y-component position of node 65 (blade 3, node 8), m
        195    1.933E+02                                 F               0         Z-component position of node 65 (blade 3, node 8), m
        196    2.315E+01                                 F               0         X-component position of node 66 (blade 3, node 9), m
        197    6.108E+00                                 F               0         Y-component position of node 66 (blade 3, node 9), m
        198    1.971E+02                                 F               0         Z-component position of node 66 (blade 3, node 9), m
        199    2.387E+01                                 F               0         X-component position of node 67 (blade 3, node 10), m
        200    6.557E+00                                 F               0         Y-component position of node 67 (blade 3, node 10), m
        201    2.008E+02                                 F               0         Z-component position of node 67 (blade 3, node 10), m
        202    2.460E+01                                 F               0         X-component position of node 68 (blade 3, node 11), m
        203    7.007E+00                                 F               0         Y-component position of node 68 (blade 3, node 11), m
        204    2.046E+02                                 F               0         Z-component position of node 68 (blade 3, node 11), m
        205    2.532E+01                                 F               0         X-component position of node 69 (blade 3, node 12), m
        206    7.456E+00                                 F               0         Y-component position of node 69 (blade 3, node 12), m
        207    2.084E+02                                 F               0         Z-component position of node 69 (blade 3, node 12), m
        208    2.605E+01                                 F               0         X-component position of node 70 (blade 3, node 13), m
        209    7.905E+00                                 F               0         Y-component position of node 70 (blade 3, node 13), m
        210    2.122E+02                                 F               0         Z-component position of node 70 (blade 3, node 13), m
        211    2.677E+01                                 F               0         X-component position of node 71 (blade 3, node 14), m