
Linearized model: Predictions were generated on 07-Feb-2024 at 11:38:03 using OpenFAST, compiled as a 64-bit application using single precision at commit v3.5.1
 linked with  NWTC Subroutine Library; ElastoDyn; InflowWind; AeroDyn; ServoDyn; HydroDyn; MAP++ (<1.20.10>, <Oct-20-2023>)

Description from the FAST input file: CCT-9 Campign 4 model. Input files to be run with OpenFAST 3.5.0. GitHub branch from Lu Wang (https://github.com/luwang00/openfast/tree/dev) compiled on March 7, 2023.

Simulation information:
   Simulation time:                  1001.0000 s
   Rotor Speed:                         1.0390 rad/s
   Azimuth:                             2.0889 rad
   Wind Speed:                         12.0000 m/s
   Number of continuous states:         0
   Number of discrete states:           0
   Number of constraint states:         0
   Number of inputs:                 1746
   Number of outputs:                   4
   Jacobians included in this file?    No

Order of inputs:
     Column   Operating Point                     Rotating Frame? Derivative Order Description
   ---------- ---------------                     --------------- ---------------- -----------
          1    1.515E+01                                 F               0         Tower X translation displacement, node 1, m
          2   -1.031E+00                                 F               0         Tower Y translation displacement, node 1, m
          3   -4.997E-01                                 F               0         Tower Z translation displacement, node 1, m
          4    1.708E+01                                 F               0         Tower X translation displacement, node 2, m
          5   -1.581E+00                                 F               0         Tower Y translation displacement, node 2, m
          6   -6.642E-01                                 F               0         Tower Z translation displacement, node 2, m
          7    1.905E+01                                 F               0         Tower X translation displacement, node 3, m
          8   -2.135E+00                                 F               0         Tower Y translation displacement, node 3, m
          9   -8.344E-01                                 F               0         Tower Z translation displacement, node 3, m
         10    2.104E+01                                 F               0         Tower X translation displacement, node 4, m
         11   -2.694E+00                                 F               0         Tower Y translation displacement, node 4, m
         12   -1.009E+00                                 F               0         Tower Z translation displacement, node 4, m
         13    2.306E+01                                 F               0         Tower X translation displacement, node 5, m
         14   -3.256E+00                                 F               0         Tower Y translation displacement, node 5, m
         15   -1.188E+00                                 F               0         Tower Z translation displacement, node 5, m
         16    2.509E+01                                 F               0         Tower X translation displacement, node 6, m
         17   -3.821E+00                                 F               0         Tower Y translation displacement, node 6, m
         18   -1.369E+00                                 F               0         Tower Z translation displacement, node 6, m
         19    2.714E+01                                 F               0         Tower X translation displacement, node 7, m
         20   -4.388E+00                                 F               0         Tower Y translation displacement, node 7, m
         21   -1.553E+00                                 F               0         Tower Z translation displacement, node 7, m
         22    2.920E+01                                 F               0         Tower X translation displacement, node 8, m
         23   -4.958E+00                                 F               0         Tower Y translation displacement, node 8, m
         24   -1.739E+00                                 F               0         Tower Z translation displacement, node 8, m
         25    3.126E+01                                 F               0         Tower X translation displacement, node 9, m
         26   -5.529E+00                                 F               0         Tower Y translation displacement, node 9, m
         27   -1.927E+00                                 F               0         Tower Z translation displacement, node 9, m
         28    3.334E+01                                 F               0         Tower X translation displacement, node 10, m
         29   -6.101E+00                                 F               0         Tower Y translation displacement, node 10, m
         30   -2.116E+00                                 F               0         Tower Z translation displacement, node 10, m
         31    3.541E+01                                 F               0         Tower X translation displacement, node 11, m
         32   -6.673E+00                                 F               0         Tower Y translation displacement, node 11, m
         33   -2.305E+00                                 F               0         Tower Z translation displacement, node 11, m
         34    9.878E-01,  1.425E-02, -1.548E-01         F               0         Tower X orientation angle, node 1, rad
         35   -7.204E-03,  9.989E-01,  4.598E-02         F               0         Tower Y orientation angle, node 1, rad
         36    1.553E-01, -4.431E-02,  9.869E-01         F               0         Tower Z orientation angle, node 1, rad
         37    9.874E-01,  1.437E-02, -1.574E-01         F               0         Tower X orientation angle, node 2, rad
         38   -7.138E-03,  9.989E-01,  4.640E-02         F               0         Tower Y orientation angle, node 2, rad
         39    1.579E-01, -4.469E-02,  9.864E-01         F               0         Tower Z orientation angle, node 2, rad
         40    9.871E-01,  1.447E-02, -1.598E-01         F               0         Tower X orientation angle, node 3, rad
         41   -7.077E-03,  9.989E-01,  4.678E-02         F               0         Tower Y orientation angle, node 3, rad
         42    1.603E-01, -4.504E-02,  9.860E-01         F               0         Tower Z orientation angle, node 3, rad
         43    9.867E-01,  1.456E-02, -1.617E-01         F               0         Tower X orientation angle, node 4, rad
         44   -7.023E-03,  9.989E-01,  4.711E-02         F               0         Tower Y orientation angle, node 4, rad
         45    1.622E-01, -4.535E-02,  9.857E-01         F               0         Tower Z orientation angle, node 4, rad
         46    9.865E-01,  1.464E-02, -1.634E-01         F               0         Tower X orientation angle, node 5, rad
         47   -6.976E-03,  9.989E-01,  4.739E-02         F               0         Tower Y orientation angle, node 5, rad
         48    1.639E-01, -4.561E-02,  9.854E-01         F               0         Tower Z orientation angle, node 5, rad
         49    9.862E-01,  1.470E-02, -1.647E-01         F               0         Tower X orientation angle, node 6, rad
         50   -6.936E-03,  9.988E-01,  4.763E-02         F               0         Tower Y orientation angle, node 6, rad
         51    1.652E-01, -4.583E-02,  9.852E-01         F               0         Tower Z orientation angle, node 6, rad
         52    9.861E-01,  1.475E-02, -1.657E-01         F               0         Tower X orientation angle, node 7, rad
         53   -6.904E-03,  9.988E-01,  4.782E-02         F               0         Tower Y orientation angle, node 7, rad
         54    1.662E-01, -4.601E-02,  9.850E-01         F               0         Tower Z orientation angle, node 7, rad
         55    9.859E-01,  1.479E-02, -1.665E-01         F               0         Tower X orientation angle, node 8, rad
         56   -6.879E-03,  9.988E-01,  4.797E-02         F               0         Tower Y orientation angle, node 8, rad
         57    1.670E-01, -4.615E-02,  9.849E-01         F               0         Tower Z orientation angle, node 8, rad
         58    9.858E-01,  1.481E-02, -1.670E-01         F               0         Tower X orientation angle, node 9, rad
         59   -6.861E-03,  9.988E-01,  4.808E-02         F               0         Tower Y orientation angle, node 9, rad
         60    1.676E-01, -4.625E-02,  9.848E-01         F               0         Tower Z orientation angle, node 9, rad
         61    9.858E-01,  1.483E-02, -1.674E-01         F               0         Tower X orientation angle, node 10, rad
         62   -6.849E-03,  9.988E-01,  4.815E-02         F               0         Tower Y orientation angle, node 10, rad
         63    1.679E-01, -4.632E-02,  9.847E-01         F               0         Tower Z orientation angle, node 10, rad
         64    9.858E-01,  1.484E-02, -1.676E-01         F               0         Tower X orientation angle, node 11, rad
         65   -6.842E-03,  9.988E-01,  4.819E-02         F               0         Tower Y orientation angle, node 11, rad
         66    1.681E-01, -4.636E-02,  9.847E-01         F               0         Tower Z orientation angle, node 11, rad
         67   -2.342E-03                                 F               0         Tower X translation velocity, node 1, m/s
         68   -3.656E-02                                 F               0         Tower Y translation velocity, node 1, m/s
         69   -4.203E-03                                 F               0         Tower Z translation velocity, node 1, m/s
         70   -2.962E-03                                 F               0         Tower X translation velocity, node 2, m/s
         71   -6.180E-02                                 F               0         Tower Y translation velocity, node 2, m/s
         72   -5.243E-03                                 F               0         Tower Z translation velocity, node 2, m/s
         73   -3.521E-03                                 F               0         Tower X translation velocity, node 3, m/s
         74   -8.746E-02                                 F               0         Tower Y translation velocity, node 3, m/s
         75   -6.320E-03                                 F               0         Tower Z translation velocity, node 3, m/s
         76   -4.039E-03                                 F               0         Tower X translation velocity, node 4, m/s
         77   -1.134E-01                                 F               0         Tower Y translation velocity, node 4, m/s
         78   -7.427E-03                                 F               0         Tower Z translation velocity, node 4, m/s
         79   -4.531E-03                                 F               0         Tower X translation velocity, node 5, m/s
         80   -1.397E-01                                 F               0         Tower Y translation velocity, node 5, m/s
         81   -8.558E-03                                 F               0         Tower Z translation velocity, node 5, m/s
         82   -5.008E-03                                 F               0         Tower X translation velocity, node 6, m/s
         83   -1.662E-01                                 F               0         Tower Y translation velocity, node 6, m/s
         84   -9.709E-03                                 F               0         Tower Z translation velocity, node 6, m/s
         85   -5.480E-03                                 F               0         Tower X translation velocity, node 7, m/s
         86   -1.929E-01                                 F               0         Tower Y translation velocity, node 7, m/s
         87   -1.087E-02                                 F               0         Tower Z translation velocity, node 7, m/s
         88   -5.954E-03                                 F               0         Tower X translation velocity, node 8, m/s
         89   -2.198E-01                                 F               0         Tower Y translation velocity, node 8, m/s
         90   -1.205E-02                                 F               0         Tower Z translation velocity, node 8, m/s
         91   -6.432E-03                                 F               0         Tower X translation velocity, node 9, m/s
         92   -2.468E-01                                 F               0         Tower Y translation velocity, node 9, m/s
         93   -1.324E-02                                 F               0         Tower Z translation velocity, node 9, m/s
         94   -6.918E-03                                 F               0         Tower X translation velocity, node 10, m/s
         95   -2.739E-01                                 F               0         Tower Y translation velocity, node 10, m/s
         96   -1.443E-02                                 F               0         Tower Z translation velocity, node 10, m/s
         97   -7.410E-03                                 F               0         Tower X translation velocity, node 11, m/s
         98   -3.010E-01                                 F               0         Tower Y translation velocity, node 11, m/s
         99   -1.562E-02                                 F               0         Tower Z translation velocity, node 11, m/s
        100    3.689E+01                                 F               0         Hub X translation displacement, node 1, m
        101   -7.197E+00                                 F               0         Hub Y translation displacement, node 1, m
        102   -6.152E-01                                 F               0         Hub Z translation displacement, node 1, m
        103    9.628E-01,  1.960E-02, -2.696E-01         F               0         Hub X orientation angle, node 1, rad
        104    2.381E-01, -5.333E-01,  8.117E-01         F               0         Hub Y orientation angle, node 1, rad
        105   -1.279E-01, -8.457E-01, -5.181E-01         F               0         Hub Z orientation angle, node 1, rad
        106    1.002E+00                                 F               0         Hub X rotation velocity, node 1, rad/s
        107    2.035E-02                                 F               0         Hub Y rotation velocity, node 1, rad/s
        108   -2.807E-01                                 F               0         Hub Z rotation velocity, node 1, rad/s
        109    9.553E-01,  3.541E-02, -2.935E-01         F               0         Blade root 1 X orientation angle, node 1, rad
        110    2.666E-01, -5.325E-01,  8.034E-01         F               0         Blade root 1 Y orientation angle, node 1, rad
        111   -1.279E-01, -8.457E-01, -5.181E-01         F               0         Blade root 1 Z orientation angle, node 1, rad
        112    9.692E-01,  3.341E-02, -2.441E-01         F               0         Blade root 2 X orientation angle, node 1, rad
        113   -2.011E-01, -4.649E-01, -8.622E-01         F               0         Blade root 2 Y orientation angle, node 1, rad
        114   -1.423E-01,  8.847E-01, -4.439E-01         F               0         Blade root 2 Z orientation angle, node 1, rad
        115    9.626E-01, -1.005E-02, -2.707E-01         F               0         Blade root 3 X orientation angle, node 1, rad
        116    2.023E-02,  9.992E-01,  3.485E-02         F               0         Blade root 3 Y orientation angle, node 1, rad
        117    2.701E-01, -3.903E-02,  9.620E-01         F               0         Blade root 3 Z orientation angle, node 1, rad
        118    3.560E+01                                 F               0         Blade 1 X translation displacement, node 1, m
        119   -1.188E+01                                 F               0         Blade 1 Y translation displacement, node 1, m
        120   -8.995E+00                                 F               0         Blade 1 Z translation displacement, node 1, m
        121    3.529E+01                                 F               0         Blade 1 X translation displacement, node 2, m
        122   -1.301E+01                                 F               0         Blade 1 Y translation displacement, node 2, m
        123   -1.101E+01                                 F               0         Blade 1 Z translation displacement, node 2, m
        124    3.107E+01                                 F               0         Blade 1 X translation displacement, node 3, m
        125   -2.836E+01                                 F               0         Blade 1 Y translation displacement, node 3, m
        126   -3.847E+01                                 F               0         Blade 1 Z translation displacement, node 3, m
        127    3.017E+01                                 F               0         Blade 1 X translation displacement, node 4, m
        128   -3.163E+01                                 F               0         Blade 1 Y translation displacement, node 4, m
        129   -4.432E+01                                 F               0         Blade 1 Z translation displacement, node 4, m
        130    2.927E+01                                 F               0         Blade 1 X translation displacement, node 5, m
        131   -3.490E+01                                 F               0         Blade 1 Y translation displacement, node 5, m
        132   -5.017E+01                                 F               0         Blade 1 Z translation displacement, node 5, m
        133    2.837E+01                                 F               0         Blade 1 X translation displacement, node 6, m
        134   -3.818E+01                                 F               0         Blade 1 Y translation displacement, node 6, m
        135   -5.602E+01                                 F               0         Blade 1 Z translation displacement, node 6, m
        136    2.747E+01                                 F               0         Blade 1 X translation displacement, node 7, m
        137   -4.145E+01                                 F               0         Blade 1 Y translation displacement, node 7, m
        138   -6.187E+01                                 F               0         Blade 1 Z translation displacement, node 7, m
        139    2.658E+01                                 F               0         Blade 1 X translation displacement, node 8, m
        140   -4.472E+01                                 F               0         Blade 1 Y translation displacement, node 8, m
        141   -6.773E+01                                 F               0         Blade 1 Z translation displacement, node 8, m
        142    2.568E+01                                 F               0         Blade 1 X translation displacement, node 9, m
        143   -4.799E+01                                 F               0         Blade 1 Y translation displacement, node 9, m
        144   -7.358E+01                                 F               0         Blade 1 Z translation displacement, node 9, m
        145    2.478E+01                                 F               0         Blade 1 X translation displacement, node 10, m
        146   -5.126E+01                                 F               0         Blade 1 Y translation displacement, node 10, m
        147   -7.943E+01                                 F               0         Blade 1 Z translation displacement, node 10, m
        148    2.388E+01                                 F               0         Blade 1 X translation displacement, node 11, m
        149   -5.453E+01                                 F               0         Blade 1 Y translation displacement, node 11, m
        150   -8.528E+01                                 F               0         Blade 1 Z translation displacement, node 11, m
        151    2.298E+01                                 F               0         Blade 1 X translation displacement, node 12, m
        152   -5.780E+01                                 F               0         Blade 1 Y translation displacement, node 12, m
        153   -9.113E+01                                 F               0         Blade 1 Z translation displacement, node 12, m
        154    2.208E+01                                 F               0         Blade 1 X translation displacement, node 13, m
        155   -6.107E+01                                 F               0         Blade 1 Y translation displacement, node 13, m
        156   -9.698E+01                                 F               0         Blade 1 Z translation displacement, node 13, m
        157    2.118E+01                                 F               0         Blade 1 X translation displacement, node 14, m
        158   -6.434E+01                                 F               0         Blade 1 Y translation displacement, node 14, m
        159   -1.028E+02                                 F               0         Blade 1 Z translation displacement, node 14, m
        160    2.028E+01                                 F               0         Blade 1 X translation displacement, node 15, m
        161   -6.761E+01                                 F               0         Blade 1 Y translation displacement, node 15, m
        162   -1.087E+02                                 F               0         Blade 1 Z translation displacement, node 15, m
        163    1.939E+01                                 F               0         Blade 1 X translation displacement, node 16, m
        164   -7.088E+01                                 F               0         Blade 1 Y translation displacement, node 16, m
        165   -1.145E+02                                 F               0         Blade 1 Z translation displacement, node 16, m
        166    1.849E+01                                 F               0         Blade 1 X translation displacement, node 17, m
        167   -7.415E+01                                 F               0         Blade 1 Y translation displacement, node 17, m
        168   -1.204E+02                                 F               0         Blade 1 Z translation displacement, node 17, m
        169    1.759E+01                                 F               0         Blade 1 X translation displacement, node 18, m
        170   -7.743E+01                                 F               0         Blade 1 Y translation displacement, node 18, m
        171   -1.262E+02                                 F               0         Blade 1 Z translation displacement, node 18, m
        172    1.669E+01                                 F               0         Blade 1 X translation displacement, node 19, m
        173   -8.070E+01                                 F               0         Blade 1 Y translation displacement, node 19, m
        174   -1.321E+02                                 F               0         Blade 1 Z translation displacement, node 19, m
        175    1.579E+01                                 F               0         Blade 1 X translation displacement, node 20, m
        176   -8.397E+01                                 F               0         Blade 1 Y translation displacement, node 20, m
        177   -1.379E+02                                 F               0         Blade 1 Z translation displacement, node 20, m
        178    1.489E+01                                 F               0         Blade 1 X translation displacement, node 21, m
        179   -8.724E+01                                 F               0         Blade 1 Y translation displacement, node 21, m
        180   -1.438E+02                                 F               0         Blade 1 Z translation displacement, node 21, m
        181    1.399E+01                                 F               0         Blade 1 X translation displacement, node 22, m
        182   -9.051E+01                                 F               0         Blade 1 Y translation displacement, node 22, m
        183   -1.496E+02                                 F               0         Blade 1 Z translation displacement, node 22, m
        184    1.309E+01                                 F               0         Blade 1 X translation displacement, node 23, m
        185   -9.378E+01                                 F               0         Blade 1 Y translation displacement, node 23, m
        186   -1.555E+02                                 F               0         Blade 1 Z translation displacement, node 23, m
        187    1.220E+01                                 F               0         Blade 1 X translation displacement, node 24, m
        188   -9.705E+01                                 F               0         Blade 1 Y translation displacement, node 24, m
        189   -1.613E+02                                 F               0         Blade 1 Z translation displacement, node 24, m
        190    1.130E+01                                 F               0         Blade 1 X translation displacement, node 25, m
        191   -1.003E+02                                 F               0         Blade 1 Y translation displacement, node 25, m
        192   -1.672E+02                                 F               0         Blade 1 Z translation displacement, node 25, m
        193    1.040E+01                                 F               0         Blade 1 X translation displacement, node 26, m
        194   -1.036E+02                                 F               0         Blade 1 Y translation displacement, node 26, m
        195   -1.730E+02                                 F               0         Blade 1 Z translation displacement, node 26, m
        196    9.499E+00                                 F               0         Blade 1 X translation displacement, node 27, m
        197   -1.069E+02                                 F               0         Blade 1 Y translation displacement, node 27, m
        198   -1.789E+02                                 F               0         Blade 1 Z translation displacement, node 27, m
        199    8.737E+00                                 F               0         Blade 1 X translation displacement, node 28, m
        200   -1.096E+02                                 F               0         Blade 1 Y translation displacement, node 28, m
        201   -1.838E+02                                 F               0         Blade 1 Z translation displacement, node 28, m
        202    7.286E-01,  2.743E-01, -6.276E-01         F               0         Blade 1 X orientation angle, node 1, rad
        203    6.729E-01, -4.578E-01,  5.811E-01         F               0         Blade 1 Y orientation angle, node 1, rad
        204   -1.279E-01, -8.457E-01, -5.181E-01         F               0         Blade 1 Z orientation angle, node 1, rad
        205    7.286E-01,  2.743E-01, -6.276E-01         F               0         Blade 1 X orientation angle, node 2, rad
        206    6.729E-01, -4.578E-01,  5.811E-01         F               0         Blade 1 Y orientation angle, node 2, rad
        207   -1.279E-01, -8.457E-01, -5.181E-01         F               0         Blade 1 Z orientation angle, node 2, rad
        208    8.673E-01,  1.580E-01, -4.720E-01         F               0         Blade 1 X orientation angle, node 3, rad
        209    4.810E-01, -5.097E-01,  7.133E-01         F               0         Blade 1 Y orientation angle, node 3, rad
        210   -1.279E-01, -8.457E-01, -5.181E-01         F               0         Blade 1 Z orientation angle, node 3, rad
        211    8.869E-01,  1.364E-01, -4.414E-01         F               0         Blade 1 X orientation angle, node 4, rad
        212    4.440E-01, -5.160E-01,  7.326E-01         F               0         Blade 1 Y orientation angle, node 4, rad
        213   -1.279E-01, -8.457E-01, -5.181E-01         F               0         Blade 1 Z orientation angle, node 4, rad
        214    9.011E-01,  1.192E-01, -4.169E-01         F               0         Blade 1 X orientation angle, node 5, rad
        215    4.143E-01, -5.202E-01,  7.468E-01         F               0         Blade 1 Y orientation angle, node 5, rad
        216   -1.279E-01, -8.457E-01, -5.181E-01         F               0         Blade 1 Z orientation angle, node 5, rad
        217    9.118E-01,  1.053E-01, -3.969E-01         F               0         Blade 1 X orientation angle, node 6, rad
        218    3.903E-01, -5.232E-01,  7.576E-01         F               0         Blade 1 Y orientation angle, node 6, rad
        219   -1.279E-01, -8.457E-01, -5.181E-01         F               0         Blade 1 Z orientation angle, node 6, rad
        220    9.201E-01,  9.391E-02, -3.803E-01         F               0         Blade 1 X orientation angle, node 7, rad
        221    3.703E-01, -5.254E-01,  7.661E-01         F               0         Blade 1 Y orientation angle, node 7, rad
        222   -1.279E-01, -8.457E-01, -5.181E-01         F               0         Blade 1 Z orientation angle, node 7, rad
        223    9.266E-01,  8.436E-02, -3.663E-01         F               0         Blade 1 X orientation angle, node 8, rad
        224    3.535E-01, -5.270E-01,  7.729E-01         F               0         Blade 1 Y orientation angle, node 8, rad
        225   -1.279E-01, -8.457E-01, -5.181E-01         F               0         Blade 1 Z orientation angle, node 8, rad
        226    9.320E-01,  7.625E-02, -3.544E-01         F               0         Blade 1 X orientation angle, node 9, rad
        227    3.392E-01, -5.282E-01,  7.784E-01         F               0         Blade 1 Y orientation angle, node 9, rad