
Linearized model: Predictions were generated on 12-Feb-2024 at 15:30:16 using OpenFAST, compiled as a 64-bit application using single precision at commit v3.5.1
 linked with  NWTC Subroutine Library; ElastoDyn; InflowWind; AeroDyn; ServoDyn; HydroDyn; MAP++ (<1.20.10>, <Oct-20-2023>)

Description from the FAST input file: CCT-9 Campign 4 model. Input files to be run with OpenFAST 3.5.0. GitHub branch from Lu Wang (https://github.com/luwang00/openfast/tree/dev) compiled on March 7, 2023.

Simulation information:
   Simulation time:                  1005.4750 s
   Rotor Speed:                         1.0408 rad/s
   Azimuth:                             0.4592 rad
   Wind Speed:                         12.0000 m/s
   Number of continuous states:         0
   Number of discrete states:           0
   Number of constraint states:         0
   Number of inputs:                 1746
   Number of outputs:                   4
   Jacobians included in this file?    No

Order of inputs:
     Column   Operating Point                     Rotating Frame? Derivative Order Description
   ---------- ---------------                     --------------- ---------------- -----------
          1    1.514E+01                                 F               0         Tower X translation displacement, node 1, m
          2   -1.159E+00                                 F               0         Tower Y translation displacement, node 1, m
          3   -5.025E-01                                 F               0         Tower Z translation displacement, node 1, m
          4    1.706E+01                                 F               0         Tower X translation displacement, node 2, m
          5   -1.794E+00                                 F               0         Tower Y translation displacement, node 2, m
          6   -6.706E-01                                 F               0         Tower Z translation displacement, node 2, m
          7    1.903E+01                                 F               0         Tower X translation displacement, node 3, m
          8   -2.436E+00                                 F               0         Tower Y translation displacement, node 3, m
          9   -8.444E-01                                 F               0         Tower Z translation displacement, node 3, m
         10    2.102E+01                                 F               0         Tower X translation displacement, node 4, m
         11   -3.083E+00                                 F               0         Tower Y translation displacement, node 4, m
         12   -1.023E+00                                 F               0         Tower Z translation displacement, node 4, m
         13    2.303E+01                                 F               0         Tower X translation displacement, node 5, m
         14   -3.735E+00                                 F               0         Tower Y translation displacement, node 5, m
         15   -1.205E+00                                 F               0         Tower Z translation displacement, node 5, m
         16    2.506E+01                                 F               0         Tower X translation displacement, node 6, m
         17   -4.390E+00                                 F               0         Tower Y translation displacement, node 6, m
         18   -1.390E+00                                 F               0         Tower Z translation displacement, node 6, m
         19    2.710E+01                                 F               0         Tower X translation displacement, node 7, m
         20   -5.048E+00                                 F               0         Tower Y translation displacement, node 7, m
         21   -1.578E+00                                 F               0         Tower Z translation displacement, node 7, m
         22    2.916E+01                                 F               0         Tower X translation displacement, node 8, m
         23   -5.708E+00                                 F               0         Tower Y translation displacement, node 8, m
         24   -1.768E+00                                 F               0         Tower Z translation displacement, node 8, m
         25    3.122E+01                                 F               0         Tower X translation displacement, node 9, m
         26   -6.370E+00                                 F               0         Tower Y translation displacement, node 9, m
         27   -1.960E+00                                 F               0         Tower Z translation displacement, node 9, m
         28    3.329E+01                                 F               0         Tower X translation displacement, node 10, m
         29   -7.034E+00                                 F               0         Tower Y translation displacement, node 10, m
         30   -2.152E+00                                 F               0         Tower Z translation displacement, node 10, m
         31    3.536E+01                                 F               0         Tower X translation displacement, node 11, m
         32   -7.698E+00                                 F               0         Tower Y translation displacement, node 11, m
         33   -2.345E+00                                 F               0         Tower Z translation displacement, node 11, m
         34    9.879E-01,  1.356E-02, -1.545E-01         F               0         Tower X orientation angle, node 1, rad
         35   -5.462E-03,  9.986E-01,  5.271E-02         F               0         Tower Y orientation angle, node 1, rad
         36    1.550E-01, -5.123E-02,  9.866E-01         F               0         Tower Z orientation angle, node 1, rad
         37    9.875E-01,  1.369E-02, -1.571E-01         F               0         Tower X orientation angle, node 2, rad
         38   -5.381E-03,  9.986E-01,  5.323E-02         F               0         Tower Y orientation angle, node 2, rad
         39    1.576E-01, -5.171E-02,  9.861E-01         F               0         Tower Z orientation angle, node 2, rad
         40    9.871E-01,  1.382E-02, -1.594E-01         F               0         Tower X orientation angle, node 3, rad
         41   -5.306E-03,  9.985E-01,  5.369E-02         F               0         Tower Y orientation angle, node 3, rad
         42    1.599E-01, -5.215E-02,  9.858E-01         F               0         Tower Z orientation angle, node 3, rad
         43    9.868E-01,  1.392E-02, -1.614E-01         F               0         Tower X orientation angle, node 4, rad
         44   -5.240E-03,  9.985E-01,  5.409E-02         F               0         Tower Y orientation angle, node 4, rad
         45    1.619E-01, -5.253E-02,  9.854E-01         F               0         Tower Z orientation angle, node 4, rad
         46    9.865E-01,  1.401E-02, -1.630E-01         F               0         Tower X orientation angle, node 5, rad
         47   -5.183E-03,  9.985E-01,  5.444E-02         F               0         Tower Y orientation angle, node 5, rad
         48    1.635E-01, -5.286E-02,  9.851E-01         F               0         Tower Z orientation angle, node 5, rad
         49    9.863E-01,  1.408E-02, -1.643E-01         F               0         Tower X orientation angle, node 6, rad
         50   -5.134E-03,  9.985E-01,  5.473E-02         F               0         Tower Y orientation angle, node 6, rad
         51    1.649E-01, -5.314E-02,  9.849E-01         F               0         Tower Z orientation angle, node 6, rad
         52    9.861E-01,  1.414E-02, -1.654E-01         F               0         Tower X orientation angle, node 7, rad
         53   -5.095E-03,  9.985E-01,  5.496E-02         F               0         Tower Y orientation angle, node 7, rad
         54    1.659E-01, -5.336E-02,  9.847E-01         F               0         Tower Z orientation angle, node 7, rad
         55    9.860E-01,  1.418E-02, -1.661E-01         F               0         Tower X orientation angle, node 8, rad
         56   -5.065E-03,  9.985E-01,  5.515E-02         F               0         Tower Y orientation angle, node 8, rad
         57    1.667E-01, -5.353E-02,  9.846E-01         F               0         Tower Z orientation angle, node 8, rad
         58    9.859E-01,  1.421E-02, -1.667E-01         F               0         Tower X orientation angle, node 9, rad
         59   -5.042E-03,  9.985E-01,  5.528E-02         F               0         Tower Y orientation angle, node 9, rad
         60    1.672E-01, -5.366E-02,  9.845E-01         F               0         Tower Z orientation angle, node 9, rad
         61    9.859E-01,  1.423E-02, -1.670E-01         F               0         Tower X orientation angle, node 10, rad
         62   -5.028E-03,  9.985E-01,  5.537E-02         F               0         Tower Y orientation angle, node 10, rad
         63    1.675E-01, -5.374E-02,  9.844E-01         F               0         Tower Z orientation angle, node 10, rad
         64    9.858E-01,  1.424E-02, -1.672E-01         F               0         Tower X orientation angle, node 11, rad
         65   -5.020E-03,  9.985E-01,  5.541E-02         F               0         Tower Y orientation angle, node 11, rad
         66    1.677E-01, -5.379E-02,  9.844E-01         F               0         Tower Z orientation angle, node 11, rad
         67   -2.538E-03                                 F               0         Tower X translation velocity, node 1, m/s
         68   -1.446E-02                                 F               0         Tower Y translation velocity, node 1, m/s
         69    3.160E-03                                 F               0         Tower Z translation velocity, node 1, m/s
         70   -3.754E-03                                 F               0         Tower X translation velocity, node 2, m/s
         71   -2.456E-02                                 F               0         Tower Y translation velocity, node 2, m/s
         72    2.826E-03                                 F               0         Tower Z translation velocity, node 2, m/s
         73   -4.967E-03                                 F               0         Tower X translation velocity, node 3, m/s
         74   -3.487E-02                                 F               0         Tower Y translation velocity, node 3, m/s
         75    2.478E-03                                 F               0         Tower Z translation velocity, node 3, m/s
         76   -6.177E-03                                 F               0         Tower X translation velocity, node 4, m/s
         77   -4.535E-02                                 F               0         Tower Y translation velocity, node 4, m/s
         78    2.119E-03                                 F               0         Tower Z translation velocity, node 4, m/s
         79   -7.387E-03                                 F               0         Tower X translation velocity, node 5, m/s
         80   -5.598E-02                                 F               0         Tower Y translation velocity, node 5, m/s
         81    1.750E-03                                 F               0         Tower Z translation velocity, node 5, m/s
         82   -8.597E-03                                 F               0         Tower X translation velocity, node 6, m/s
         83   -6.672E-02                                 F               0         Tower Y translation velocity, node 6, m/s
         84    1.374E-03                                 F               0         Tower Z translation velocity, node 6, m/s
         85   -9.808E-03                                 F               0         Tower X translation velocity, node 7, m/s
         86   -7.757E-02                                 F               0         Tower Y translation velocity, node 7, m/s
         87    9.905E-04                                 F               0         Tower Z translation velocity, node 7, m/s
         88   -1.102E-02                                 F               0         Tower X translation velocity, node 8, m/s
         89   -8.850E-02                                 F               0         Tower Y translation velocity, node 8, m/s
         90    6.021E-04                                 F               0         Tower Z translation velocity, node 8, m/s
         91   -1.224E-02                                 F               0         Tower X translation velocity, node 9, m/s
         92   -9.949E-02                                 F               0         Tower Y translation velocity, node 9, m/s
         93    2.096E-04                                 F               0         Tower Z translation velocity, node 9, m/s
         94   -1.345E-02                                 F               0         Tower X translation velocity, node 10, m/s
         95   -1.105E-01                                 F               0         Tower Y translation velocity, node 10, m/s
         96   -1.858E-04                                 F               0         Tower Z translation velocity, node 10, m/s
         97   -1.467E-02                                 F               0         Tower X translation velocity, node 11, m/s
         98   -1.216E-01                                 F               0         Tower Y translation velocity, node 11, m/s
         99   -5.829E-04                                 F               0         Tower Z translation velocity, node 11, m/s
        100    3.683E+01                                 F               0         Hub X translation displacement, node 1, m
        101   -8.274E+00                                 F               0         Hub Y translation displacement, node 1, m
        102   -6.622E-01                                 F               0         Hub Z translation displacement, node 1, m
        103    9.629E-01,  1.978E-02, -2.692E-01         F               0         Hub X orientation angle, node 1, rad
        104    1.151E-01,  8.719E-01,  4.759E-01         F               0         Hub Y orientation angle, node 1, rad
        105    2.441E-01, -4.892E-01,  8.373E-01         F               0         Hub Z orientation angle, node 1, rad
        106    1.003E+00                                 F               0         Hub X rotation velocity, node 1, rad/s
        107    2.048E-02                                 F               0         Hub Y rotation velocity, node 1, rad/s
        108   -2.801E-01                                 F               0         Hub Z rotation velocity, node 1, rad/s
        109    9.591E-01, -6.097E-03, -2.832E-01         F               0         Blade root 1 X orientation angle, node 1, rad
        110    1.436E-01,  8.722E-01,  4.677E-01         F               0         Blade root 1 Y orientation angle, node 1, rad
        111    2.441E-01, -4.892E-01,  8.373E-01         F               0         Blade root 1 Z orientation angle, node 1, rad
        112    9.579E-01,  4.527E-02, -2.835E-01         F               0         Blade root 2 X orientation angle, node 1, rad
        113    1.823E-01, -8.587E-01,  4.790E-01         F               0         Blade root 2 Y orientation angle, node 1, rad
        114   -2.217E-01, -5.105E-01, -8.308E-01         F               0         Blade root 2 Z orientation angle, node 1, rad
        115    9.704E-01,  2.014E-02, -2.405E-01         F               0         Blade root 3 X orientation angle, node 1, rad
        116   -2.403E-01, -1.172E-02, -9.706E-01         F               0         Blade root 3 Y orientation angle, node 1, rad
        117   -2.236E-02,  9.997E-01, -6.537E-03         F               0         Blade root 3 Z orientation angle, node 1, rad
        118    3.760E+01                                 F               0         Blade 1 X translation displacement, node 1, m
        119   -1.098E+01                                 F               0         Blade 1 Y translation displacement, node 1, m
        120   -1.533E+00                                 F               0         Blade 1 Z translation displacement, node 1, m
        121    3.779E+01                                 F               0         Blade 1 X translation displacement, node 2, m
        122   -1.164E+01                                 F               0         Blade 1 Y translation displacement, node 2, m
        123   -1.743E+00                                 F               0         Blade 1 Z translation displacement, node 2, m
        124    4.032E+01                                 F               0         Blade 1 X translation displacement, node 3, m
        125   -2.052E+01                                 F               0         Blade 1 Y translation displacement, node 3, m
        126   -4.597E+00                                 F               0         Blade 1 Z translation displacement, node 3, m
        127    4.086E+01                                 F               0         Blade 1 X translation displacement, node 4, m
        128   -2.241E+01                                 F               0         Blade 1 Y translation displacement, node 4, m
        129   -5.205E+00                                 F               0         Blade 1 Z translation displacement, node 4, m
        130    4.140E+01                                 F               0         Blade 1 X translation displacement, node 5, m
        131   -2.430E+01                                 F               0         Blade 1 Y translation displacement, node 5, m
        132   -5.813E+00                                 F               0         Blade 1 Z translation displacement, node 5, m
        133    4.194E+01                                 F               0         Blade 1 X translation displacement, node 6, m
        134   -2.619E+01                                 F               0         Blade 1 Y translation displacement, node 6, m
        135   -6.421E+00                                 F               0         Blade 1 Z translation displacement, node 6, m
        136    4.248E+01                                 F               0         Blade 1 X translation displacement, node 7, m
        137   -2.809E+01                                 F               0         Blade 1 Y translation displacement, node 7, m
        138   -7.029E+00                                 F               0         Blade 1 Z translation displacement, node 7, m
        139    4.302E+01                                 F               0         Blade 1 X translation displacement, node 8, m
        140   -2.998E+01                                 F               0         Blade 1 Y translation displacement, node 8, m
        141   -7.637E+00                                 F               0         Blade 1 Z translation displacement, node 8, m
        142    4.356E+01                                 F               0         Blade 1 X translation displacement, node 9, m
        143   -3.187E+01                                 F               0         Blade 1 Y translation displacement, node 9, m
        144   -8.245E+00                                 F               0         Blade 1 Z translation displacement, node 9, m
        145    4.410E+01                                 F               0         Blade 1 X translation displacement, node 10, m
        146   -3.376E+01                                 F               0         Blade 1 Y translation displacement, node 10, m
        147   -8.853E+00                                 F               0         Blade 1 Z translation displacement, node 10, m
        148    4.464E+01                                 F               0         Blade 1 X translation displacement, node 11, m
        149   -3.565E+01                                 F               0         Blade 1 Y translation displacement, node 11, m
        150   -9.461E+00                                 F               0         Blade 1 Z translation displacement, node 11, m
        151    4.518E+01                                 F               0         Blade 1 X translation displacement, node 12, m
        152   -3.755E+01                                 F               0         Blade 1 Y translation displacement, node 12, m
        153   -1.007E+01                                 F               0         Blade 1 Z translation displacement, node 12, m
        154    4.572E+01                                 F               0         Blade 1 X translation displacement, node 13, m
        155   -3.944E+01                                 F               0         Blade 1 Y translation displacement, node 13, m
        156   -1.068E+01                                 F               0         Blade 1 Z translation displacement, node 13, m
        157    4.626E+01                                 F               0         Blade 1 X translation displacement, node 14, m
        158   -4.133E+01                                 F               0         Blade 1 Y translation displacement, node 14, m
        159   -1.129E+01                                 F               0         Blade 1 Z translation displacement, node 14, m
        160    4.680E+01                                 F               0         Blade 1 X translation displacement, node 15, m
        161   -4.322E+01                                 F               0         Blade 1 Y translation displacement, node 15, m
        162   -1.189E+01                                 F               0         Blade 1 Z translation displacement, node 15, m
        163    4.734E+01                                 F               0         Blade 1 X translation displacement, node 16, m
        164   -4.511E+01                                 F               0         Blade 1 Y translation displacement, node 16, m
        165   -1.250E+01                                 F               0         Blade 1 Z translation displacement, node 16, m
        166    4.788E+01                                 F               0         Blade 1 X translation displacement, node 17, m
        167   -4.701E+01                                 F               0         Blade 1 Y translation displacement, node 17, m
        168   -1.311E+01                                 F               0         Blade 1 Z translation displacement, node 17, m
        169    4.842E+01                                 F               0         Blade 1 X translation displacement, node 18, m
        170   -4.890E+01                                 F               0         Blade 1 Y translation displacement, node 18, m
        171   -1.372E+01                                 F               0         Blade 1 Z translation displacement, node 18, m
        172    4.896E+01                                 F               0         Blade 1 X translation displacement, node 19, m
        173   -5.079E+01                                 F               0         Blade 1 Y translation displacement, node 19, m
        174   -1.433E+01                                 F               0         Blade 1 Z translation displacement, node 19, m
        175    4.950E+01                                 F               0         Blade 1 X translation displacement, node 20, m
        176   -5.268E+01                                 F               0         Blade 1 Y translation displacement, node 20, m
        177   -1.493E+01                                 F               0         Blade 1 Z translation displacement, node 20, m
        178    5.004E+01                                 F               0         Blade 1 X translation displacement, node 21, m
        179   -5.458E+01                                 F               0         Blade 1 Y translation displacement, node 21, m
        180   -1.554E+01                                 F               0         Blade 1 Z translation displacement, node 21, m
        181    5.058E+01                                 F               0         Blade 1 X translation displacement, node 22, m
        182   -5.647E+01                                 F               0         Blade 1 Y translation displacement, node 22, m
        183   -1.615E+01                                 F               0         Blade 1 Z translation displacement, node 22, m
        184    5.112E+01                                 F               0         Blade 1 X translation displacement, node 23, m
        185   -5.836E+01                                 F               0         Blade 1 Y translation displacement, node 23, m
        186   -1.676E+01                                 F               0         Blade 1 Z translation displacement, node 23, m
        187    5.166E+01                                 F               0         Blade 1 X translation displacement, node 24, m
        188   -6.025E+01                                 F               0         Blade 1 Y translation displacement, node 24, m
        189   -1.737E+01                                 F               0         Blade 1 Z translation displacement, node 24, m
        190    5.220E+01                                 F               0         Blade 1 X translation displacement, node 25, m
        191   -6.214E+01                                 F               0         Blade 1 Y translation displacement, node 25, m
        192   -1.797E+01                                 F               0         Blade 1 Z translation displacement, node 25, m
        193    5.274E+01                                 F               0         Blade 1 X translation displacement, node 26, m
        194   -6.404E+01                                 F               0         Blade 1 Y translation displacement, node 26, m
        195   -1.858E+01                                 F               0         Blade 1 Z translation displacement, node 26, m
        196    5.328E+01                                 F               0         Blade 1 X translation displacement, node 27, m
        197   -6.593E+01                                 F               0         Blade 1 Y translation displacement, node 27, m
        198   -1.919E+01                                 F               0         Blade 1 Z translation displacement, node 27, m
        199    5.374E+01                                 F               0         Blade 1 X translation displacement, node 28, m
        200   -6.753E+01                                 F               0         Blade 1 Y translation displacement, node 28, m
        201   -1.971E+01                                 F               0         Blade 1 Z translation displacement, node 28, m
        202    7.880E-01, -4.031E-01, -4.653E-01         F               0         Blade 1 X orientation angle, node 1, rad
        203    5.652E-01,  7.734E-01,  2.871E-01         F               0         Blade 1 Y orientation angle, node 1, rad
        204    2.441E-01, -4.892E-01,  8.373E-01         F               0         Blade 1 Z orientation angle, node 1, rad
        205    7.880E-01, -4.031E-01, -4.653E-01         F               0         Blade 1 X orientation angle, node 2, rad
        206    5.652E-01,  7.734E-01,  2.871E-01         F               0         Blade 1 Y orientation angle, node 2, rad
        207    2.441E-01, -4.892E-01,  8.373E-01         F               0         Blade 1 Z orientation angle, node 2, rad
        208    8.995E-01, -2.083E-01, -3.840E-01         F               0         Blade 1 X orientation angle, node 3, rad
        209    3.623E-01,  8.469E-01,  3.892E-01         F               0         Blade 1 Y orientation angle, node 3, rad
        210    2.441E-01, -4.892E-01,  8.373E-01         F               0         Blade 1 Z orientation angle, node 3, rad
        211    9.140E-01, -1.724E-01, -3.672E-01         F               0         Blade 1 X orientation angle, node 4, rad
        212    3.240E-01,  8.550E-01,  4.051E-01         F               0         Blade 1 Y orientation angle, node 4, rad
        213    2.441E-01, -4.892E-01,  8.373E-01         F               0         Blade 1 Z orientation angle, node 4, rad
        214    9.243E-01, -1.440E-01, -3.536E-01         F               0         Blade 1 X orientation angle, node 5, rad
        215    2.935E-01,  8.602E-01,  4.170E-01         F               0         Blade 1 Y orientation angle, node 5, rad
        216    2.441E-01, -4.892E-01,  8.373E-01         F               0         Blade 1 Z orientation angle, node 5, rad
        217    9.317E-01, -1.211E-01, -3.424E-01         F               0         Blade 1 X orientation angle, node 6, rad
        218    2.689E-01,  8.637E-01,  4.262E-01         F               0         Blade 1 Y orientation angle, node 6, rad
        219    2.441E-01, -4.892E-01,  8.373E-01         F               0         Blade 1 Z orientation angle, node 6, rad
        220    9.374E-01, -1.022E-01, -3.330E-01         F               0         Blade 1 X orientation angle, node 7, rad
        221    2.485E-01,  8.662E-01,  4.336E-01         F               0         Blade 1 Y orientation angle, node 7, rad
        222    2.441E-01, -4.892E-01,  8.373E-01         F               0         Blade 1 Z orientation angle, node 7, rad
        223    9.417E-01, -8.648E-02, -3.251E-01         F               0         Blade 1 X orientation angle, node 8, rad
        224    2.314E-01,  8.679E-01,  4.396E-01         F               0         Blade 1 Y orientation angle, node 8, rad
        225    2.441E-01, -4.892E-01,  8.373E-01         F               0         Blade 1 Z orientation angle, node 8, rad
        226    9.452E-01, -7.314E-02, -3.183E-01         F               0         Blade 1 X orientation angle, node 9, rad
        227    2.169E-01,  8.691E-01,  4.445E-01         F               0         Blade 1 Y orientation angle, node 9, rad