
Linearized model: Predictions were generated on 13-Feb-2024 at 12:12:09 using OpenFAST, compiled as a 64-bit application using single precision at commit v3.5.1
 linked with  NWTC Subroutine Library; ElastoDyn; InflowWind; AeroDyn; ServoDyn; HydroDyn; MAP++ (<1.20.10>, <Oct-20-2023>)

Description from the FAST input file: CCT-9 Campign 4 model. Input files to be run with OpenFAST 3.5.0. GitHub branch from Lu Wang (https://github.com/luwang00/openfast/tree/dev) compiled on March 7, 2023.

Simulation information:
   Simulation time:                   770.4500 s
   Rotor Speed:                         0.7915 rad/s
   Azimuth:                             0.0116 rad
   Wind Speed:                         24.0000 m/s
   Number of continuous states:         0
   Number of discrete states:           0
   Number of constraint states:         0
   Number of inputs:                 1746
   Number of outputs:                   4
   Jacobians included in this file?    No

Order of inputs:
     Column   Operating Point                                                   Rotating Frame? Derivative Order Description
   ---------- ---------------                                                   --------------- ---------------- -----------
          1     8.55671501160E+000                                                     F               0         Tower X translation displacement, node 1, m
          2    -1.82612180710E+000                                                     F               0         Tower Y translation displacement, node 1, m
          3    -2.17159181833E-001                                                     F               0         Tower Z translation displacement, node 1, m
          4     9.73008441925E+000                                                     F               0         Tower X translation displacement, node 2, m
          5    -2.50202846527E+000                                                     F               0         Tower Y translation displacement, node 2, m
          6    -2.91593432426E-001                                                     F               0         Tower Z translation displacement, node 2, m
          7     1.09220390320E+001                                                     F               0         Tower X translation displacement, node 3, m
          8    -3.18591809273E+000                                                     F               0         Tower Y translation displacement, node 3, m
          9    -3.68255436420E-001                                                     F               0         Tower Z translation displacement, node 3, m
         10     1.21279344559E+001                                                     F               0         Tower X translation displacement, node 4, m
         11    -3.87637376785E+000                                                     F               0         Tower Y translation displacement, node 4, m
         12    -4.46646332741E-001                                                     F               0         Tower Z translation displacement, node 4, m
         13     1.33451900482E+001                                                     F               0         Tower X translation displacement, node 5, m
         14    -4.57276296616E+000                                                     F               0         Tower Y translation displacement, node 5, m
         15    -5.26490509510E-001                                                     F               0         Tower Z translation displacement, node 5, m
         16     1.45713939667E+001                                                     F               0         Tower X translation displacement, node 6, m
         17    -5.27441453934E+000                                                     F               0         Tower Y translation displacement, node 6, m
         18    -6.07535779476E-001                                                     F               0         Tower Z translation displacement, node 6, m
         19     1.58039350510E+001                                                     F               0         Tower X translation displacement, node 7, m
         20    -5.98029041290E+000                                                     F               0         Tower Y translation displacement, node 7, m
         21    -6.89443707466E-001                                                     F               0         Tower Z translation displacement, node 7, m
         22     1.70415859222E+001                                                     F               0         Tower X translation displacement, node 8, m
         23    -6.69005393982E+000                                                     F               0         Tower Y translation displacement, node 8, m
         24    -7.72102355957E-001                                                     F               0         Tower Z translation displacement, node 8, m
         25     1.82827129364E+001                                                     F               0         Tower X translation displacement, node 9, m
         26    -7.40289974213E+000                                                     F               0         Tower Y translation displacement, node 9, m
         27    -8.55281293392E-001                                                     F               0         Tower Z translation displacement, node 9, m
         28     1.95259799957E+001                                                     F               0         Tower X translation displacement, node 10, m
         29    -8.11797428131E+000                                                     F               0         Tower Y translation displacement, node 10, m
         30    -9.38812673092E-001                                                     F               0         Tower Z translation displacement, node 10, m
         31     2.07703132629E+001                                                     F               0         Tower X translation displacement, node 11, m
         32    -8.83444309235E+000                                                     F               0         Tower Y translation displacement, node 11, m
         33    -1.02253055573E+000                                                     F               0         Tower Z translation displacement, node 11, m
         34     9.95467364788E-001,  -6.68335892260E-003,  -9.48689430952E-002         F               0         Tower X orientation angle, node 1, rad
         35     1.18101332337E-002,   9.98493611813E-001,   5.35824596882E-002         F               0         Tower Y orientation angle, node 1, rad
         36     9.43679139018E-002,  -5.44600039721E-002,   9.94046688080E-001         F               0         Tower Z orientation angle, node 1, rad
         37     9.95330989361E-001,  -6.60481583327E-003,  -9.62946265936E-002         F               0         Tower X orientation angle, node 2, rad
         38     1.18660693988E-002,   9.98461365700E-001,   5.41672259569E-002         F               0         Tower Y orientation angle, node 2, rad
         39     9.57886949182E-002,  -5.50569556653E-002,   9.93877887726E-001         F               0         Tower Z orientation angle, node 2, rad
         40     9.95210886002E-001,  -6.53588399291E-003,  -9.75321978331E-002         F               0         Tower X orientation angle, node 3, rad
         41     1.19186975062E-002,   9.98431146145E-001,   5.47100082040E-002         F               0         Tower Y orientation angle, node 3, rad
         42     9.70216095448E-002,  -5.56104518473E-002,   9.93727445602E-001         F               0         Tower Z orientation angle, node 3, rad
         43     9.95109796524E-001,  -6.47787563503E-003,  -9.85626056790E-002         F               0         Tower X orientation angle, node 4, rad
         44     1.19672436267E-002,   9.98403310776E-001,   5.52054047585E-002         F               0         Tower Y orientation angle, node 4, rad
         45     9.80476215482E-002,  -5.61149604619E-002,   9.93598401546E-001         F               0         Tower Z orientation angle, node 4, rad
         46     9.95027244091E-001,  -6.43051043153E-003,  -9.93952080607E-002         F               0         Tower X orientation angle, node 5, rad
         47     1.20112970471E-002,   9.98377978802E-001,   5.56514523923E-002         F               0         Tower Y orientation angle, node 5, rad
         48     9.88761186600E-002,  -5.65685778856E-002,   9.93490576744E-001         F               0         Tower Z orientation angle, node 5, rad
         49     9.94962394238E-001,  -6.39315694571E-003,  -1.00045017898E-001         F               0         Tower X orientation angle, node 6, rad
         50     1.20503781363E-002,   9.98355507851E-001,   5.60450665653E-002         F               0         Tower Y orientation angle, node 6, rad
         51     9.95221883059E-002,  -5.69683127105E-002,   9.93403196335E-001         F               0         Tower Z orientation angle, node 6, rad
         52     9.94914710522E-001,  -6.36559026316E-003,  -1.00519418716E-001         F               0         Tower X orientation angle, node 7, rad
         53     1.20834782720E-002,   9.98336374760E-001,   5.63774667680E-002         F               0         Tower Y orientation angle, node 7, rad
         54     9.99933183193E-002,  -5.73053993285E-002,   9.93336498737E-001         F               0         Tower Z orientation angle, node 7, rad
         55     9.94880855083E-001,  -6.34584529325E-003,  -1.00855633616E-001         F               0         Tower X orientation angle, node 8, rad
         56     1.21105629951E-002,   9.98320698738E-001,   5.66490814090E-002         F               0         Tower Y orientation angle, node 8, rad
         57     1.00326776505E-001,  -5.75805045664E-002,   9.93286967278E-001         F               0         Tower Z orientation angle, node 8, rad
         58     9.94858503342E-001,  -6.33272156119E-003,  -1.01076699793E-001         F               0         Tower X orientation angle, node 9, rad
         59     1.21312271804E-002,   9.98308658600E-001,   5.68562597036E-002         F               0         Tower Y orientation angle, node 9, rad
         60     1.00545689464E-001,  -5.77901192009E-002,   9.93252694607E-001         F               0         Tower Z orientation angle, node 9, rad
         61     9.94845509529E-001,  -6.32502278313E-003,  -1.01204946637E-001         F               0         Tower X orientation angle, node 10, rad
         62     1.21451662853E-002,   9.98300552368E-001,   5.69961294532E-002         F               0         Tower Y orientation angle, node 10, rad
         63     1.00672453642E-001,  -5.79314939678E-002,   9.93231594563E-001         F               0         Tower Z orientation angle, node 10, rad
         64     9.94839251041E-001,  -6.32129376754E-003,  -1.01266354322E-001         F               0         Tower X orientation angle, node 11, rad
         65     1.21529418975E-002,   9.98295962811E-001,   5.70742562413E-002         F               0         Tower Y orientation angle, node 11, rad
         66     1.00733011961E-001,  -5.80103956163E-002,   9.93220865726E-001         F               0         Tower Z orientation angle, node 11, rad
         67    -1.01790735498E-002                                                     F               0         Tower X translation velocity, node 1, m/s
         68    -1.25916535035E-003                                                     F               0         Tower Y translation velocity, node 1, m/s
         69     3.37054301053E-003                                                     F               0         Tower Z translation velocity, node 1, m/s
         70    -1.26348445192E-002                                                     F               0         Tower X translation velocity, node 2, m/s
         71    -1.76571228076E-003                                                     F               0         Tower Y translation velocity, node 2, m/s
         72     3.57711291872E-003                                                     F               0         Tower Z translation velocity, node 2, m/s
         73    -1.38007374480E-002                                                     F               0         Tower X translation velocity, node 3, m/s
         74    -2.16401345097E-003                                                     F               0         Tower Y translation velocity, node 3, m/s
         75     3.66809568368E-003                                                     F               0         Tower Z translation velocity, node 3, m/s
         76    -1.38510409743E-002                                                     F               0         Tower X translation velocity, node 4, m/s
         77    -2.48144497164E-003                                                     F               0         Tower Y translation velocity, node 4, m/s
         78     3.65517009050E-003                                                     F               0         Tower Z translation velocity, node 4, m/s
         79    -1.28430183977E-002                                                     F               0         Tower X translation velocity, node 5, m/s
         80    -2.73334328085E-003                                                     F               0         Tower Y translation velocity, node 5, m/s
         81     3.54090472683E-003                                                     F               0         Tower Z translation velocity, node 5, m/s
         82    -1.08493063599E-002                                                     F               0         Tower X translation velocity, node 6, m/s
         83    -2.93395505287E-003                                                     F               0         Tower Y translation velocity, node 6, m/s
         84     3.33024747670E-003                                                     F               0         Tower Z translation velocity, node 6, m/s
         85    -8.02912190557E-003                                                     F               0         Tower X translation velocity, node 7, m/s
         86    -3.09851975180E-003                                                     F               0         Tower Y translation velocity, node 7, m/s
         87     3.03759030066E-003                                                     F               0         Tower Z translation velocity, node 7, m/s
         88    -4.41600382328E-003                                                     F               0         Tower X translation velocity, node 8, m/s
         89    -3.23418574408E-003                                                     F               0         Tower Y translation velocity, node 8, m/s
         90     2.66544451006E-003                                                     F               0         Tower Z translation velocity, node 8, m/s
         91    -1.47400627611E-004                                                     F               0         Tower X translation velocity, node 9, m/s
         92    -3.35027487017E-003                                                     F               0         Tower Y translation velocity, node 9, m/s
         93     2.22709565423E-003                                                     F               0         Tower Z translation velocity, node 9, m/s
         94     4.61634946987E-003                                                     F               0         Tower X translation velocity, node 10, m/s
         95    -3.45417764038E-003                                                     F               0         Tower Y translation velocity, node 10, m/s
         96     1.73852487933E-003                                                     F               0         Tower Z translation velocity, node 10, m/s
         97     9.70338936895E-003                                                     F               0         Tower X translation velocity, node 11, m/s
         98    -3.55119467713E-003                                                     F               0         Tower Y translation velocity, node 11, m/s
         99     1.21717120055E-003                                                     F               0         Tower Z translation velocity, node 11, m/s
        100     2.16168231964E+001                                                     F               0         Hub X translation displacement, node 1, m
        101    -9.22156143188E+000                                                     F               0         Hub Y translation displacement, node 1, m
        102     1.79852116853E-002                                                     F               0         Hub Z translation displacement, node 1, m
        103     9.78859961033E-001,  -2.22927352297E-004,  -2.04531461000E-001         F               0         Hub X orientation angle, node 1, rad
        104     1.45160127431E-002,   9.97553408146E-001,   6.83844015002E-002         F               0         Hub Y orientation angle, node 1, rad
        105     2.04015821218E-001,  -6.99077323079E-002,   9.76468384266E-001         F               0         Hub Z orientation angle, node 1, rad
        106     7.74734497070E-001                                                     F               0         Hub X rotation velocity, node 1, rad/s
        107     2.43152448093E-004                                                     F               0         Hub Y rotation velocity, node 1, rad/s
        108    -1.61867931485E-001                                                     F               0         Hub Z rotation velocity, node 1, rad/s
        109     9.32407259941E-001,  -2.90074437857E-001,  -2.15577155352E-001         F               0         Blade root 1 X orientation angle, node 1, rad
        110     2.98319011927E-001,   9.54447329044E-001,   6.00270880386E-003         F               0         Blade root 1 Y orientation angle, node 1, rad
        111     2.04015821218E-001,  -6.99077323079E-002,   9.76468384266E-001         F               0         Blade root 1 Z orientation angle, node 1, rad
        112     8.87395083904E-001,   1.62309020758E-001,  -4.31492447853E-001         F               0         Blade root 2 X orientation angle, node 1, rad
        113     4.46544051170E-001,  -5.35250544548E-001,   7.17011392117E-001         F               0         Blade root 2 Y orientation angle, node 1, rad
        114    -1.14579141140E-001,  -8.28952729702E-001,  -5.47456800938E-001         F               0         Blade root 2 Z orientation angle, node 1, rad
        115     9.90073263645E-001,   1.27125471830E-001,   5.99499195814E-002         F               0         Blade root 3 X orientation angle, node 1, rad
        116     1.08424909413E-001,  -4.19391155243E-001,  -9.01307463646E-001         F               0         Blade root 3 Y orientation angle, node 1, rad
        117    -8.94366726279E-002,   8.98860514164E-001,  -4.29011553526E-001         F               0         Blade root 3 Z orientation angle, node 1, rad
        118     2.21679821014E+001                                                     F               0         Blade 1 X translation displacement, node 1, m
        119    -9.60885047913E+000                                                     F               0         Blade 1 Y translation displacement, node 1, m
        120    -8.20389315486E-002                                                     F               0         Blade 1 Z translation displacement, node 1, m
        121     2.23007888794E+001                                                     F               0         Blade 1 X translation displacement, node 2, m
        122    -9.70217037201E+000                                                     F               0         Blade 1 Y translation displacement, node 2, m
        123    -1.06136329472E-001                                                     F               0         Blade 1 Z translation displacement, node 2, m
        124     2.41067237854E+001                                                     F               0         Blade 1 X translation displacement, node 3, m
        125    -1.09711637497E+001                                                     F               0         Blade 1 Y translation displacement, node 3, m
        126    -4.33848649263E-001                                                     F               0         Blade 1 Z translation displacement, node 3, m
        127     2.44914894104E+001                                                     F               0         Blade 1 X translation displacement, node 4, m
        128    -1.12415313721E+001                                                     F               0         Blade 1 Y translation displacement, node 4, m
        129    -5.03677904606E-001                                                     F               0         Blade 1 Z translation displacement, node 4, m
        130     2.48763275146E+001                                                     F               0         Blade 1 X translation displacement, node 5, m
        131    -1.15119485855E+001                                                     F               0         Blade 1 Y translation displacement, node 5, m
        132    -5.73504865170E-001                                                     F               0         Blade 1 Z translation displacement, node 5, m
        133     2.52610950470E+001                                                     F               0         Blade 1 X translation displacement, node 6, m
        134    -1.17823171616E+001                                                     F               0         Blade 1 Y translation displacement, node 6, m
        135    -6.43334329128E-001                                                     F               0         Blade 1 Z translation displacement, node 6, m
        136     2.56458625793E+001                                                     F               0         Blade 1 X translation displacement, node 7, m
        137    -1.20526857376E+001                                                     F               0         Blade 1 Y translation displacement, node 7, m
        138    -7.13150501251E-001                                                     F               0         Blade 1 Z translation displacement, node 7, m
        139     2.60306987762E+001                                                     F               0         Blade 1 X translation displacement, node 8, m
        140    -1.23231019974E+001                                                     F               0         Blade 1 Y translation displacement, node 8, m
        141    -7.82992601395E-001                                                     F               0         Blade 1 Z translation displacement, node 8, m
        142     2.64154663086E+001                                                     F               0         Blade 1 X translation displacement, node 9, m
        143    -1.25934705734E+001                                                     F               0         Blade 1 Y translation displacement, node 9, m
        144    -8.52806866169E-001                                                     F               0         Blade 1 Z translation displacement, node 9, m
        145     2.68002338409E+001                                                     F               0         Blade 1 X translation displacement, node 10, m
        146    -1.28638381958E+001                                                     F               0         Blade 1 Y translation displacement, node 10, m
        147    -9.22636270523E-001                                                     F               0         Blade 1 Z translation displacement, node 10, m
        148     2.71850013733E+001                                                     F               0         Blade 1 X translation displacement, node 11, m
        149    -1.31342067719E+001                                                     F               0         Blade 1 Y translation displacement, node 11, m
        150    -9.92450535297E-001                                                     F               0         Blade 1 Z translation displacement, node 11, m
        151     2.75698375702E+001                                                     F               0         Blade 1 X translation displacement, node 12, m
        152    -1.34046239853E+001                                                     F               0         Blade 1 Y translation displacement, node 12, m
        153    -1.06229269505E+000                                                     F               0         Blade 1 Z translation displacement, node 12, m
        154     2.79546051025E+001                                                     F               0         Blade 1 X translation displacement, node 13, m
        155    -1.36749916077E+001                                                     F               0         Blade 1 Y translation displacement, node 13, m
        156    -1.13210690022E+000                                                     F               0         Blade 1 Z translation displacement, node 13, m
        157     2.83393726349E+001                                                     F               0         Blade 1 X translation displacement, node 14, m
        158    -1.39453601837E+001                                                     F               0         Blade 1 Y translation displacement, node 14, m
        159    -1.20193636417E+000                                                     F               0         Blade 1 Z translation displacement, node 14, m
        160     2.87242088318E+001                                                     F               0         Blade 1 X translation displacement, node 15, m
        161    -1.42157773972E+001                                                     F               0         Blade 1 Y translation displacement, node 15, m
        162    -1.27176833153E+000                                                     F               0         Blade 1 Z translation displacement, node 15, m
        163     2.91089763641E+001                                                     F               0         Blade 1 X translation displacement, node 16, m
        164    -1.44861450195E+001                                                     F               0         Blade 1 Y translation displacement, node 16, m
        165    -1.34159529209E+000                                                     F               0         Blade 1 Z translation displacement, node 16, m
        166     2.94937458038E+001                                                     F               0         Blade 1 X translation displacement, node 17, m
        167    -1.47565145493E+001                                                     F               0         Blade 1 Y translation displacement, node 17, m
        168    -1.41140699387E+000                                                     F               0         Blade 1 Z translation displacement, node 17, m
        169     2.98785133362E+001                                                     F               0         Blade 1 X translation displacement, node 18, m
        170    -1.50268821716E+001                                                     F               0         Blade 1 Y translation displacement, node 18, m
        171    -1.48123383522E+000                                                     F               0         Blade 1 Z translation displacement, node 18, m
        172     3.02633476257E+001                                                     F               0         Blade 1 X translation displacement, node 19, m
        173    -1.52972984314E+001                                                     F               0         Blade 1 Y translation displacement, node 19, m
        174    -1.55107319355E+000                                                     F               0         Blade 1 Z translation displacement, node 19, m
        175     3.06481151581E+001                                                     F               0         Blade 1 X translation displacement, node 20, m
        176    -1.55676660538E+001                                                     F               0         Blade 1 Y translation displacement, node 20, m
        177    -1.62088489532E+000                                                     F               0         Blade 1 Z translation displacement, node 20, m
        178     3.10328826904E+001                                                     F               0         Blade 1 X translation displacement, node 21, m
        179    -1.58380355835E+001                                                     F               0         Blade 1 Y translation displacement, node 21, m
        180    -1.69071185589E+000                                                     F               0         Blade 1 Z translation displacement, node 21, m
        181     3.14177188873E+001                                                     F               0         Blade 1 X translation displacement, node 22, m
        182    -1.61084518433E+001                                                     F               0         Blade 1 Y translation displacement, node 22, m
        183    -1.76055133343E+000                                                     F               0         Blade 1 Z translation displacement, node 22, m