
Linearized model: Predictions were generated on 13-Feb-2024 at 12:12:09 using OpenFAST, compiled as a 64-bit application using single precision at commit v3.5.1
 linked with  NWTC Subroutine Library; ElastoDyn; InflowWind; AeroDyn; ServoDyn; HydroDyn; MAP++ (<1.20.10>, <Oct-20-2023>)

Description from the FAST input file: CCT-9 Campign 4 model. Input files to be run with OpenFAST 3.5.0. GitHub branch from Lu Wang (https://github.com/luwang00/openfast/tree/dev) compiled on March 7, 2023.

Simulation information:
   Simulation time:                   770.6750 s
   Rotor Speed:                         0.7916 rad/s
   Azimuth:                             0.1897 rad
   Wind Speed:                         24.0000 m/s
   Number of continuous states:        22
   Number of discrete states:           0
   Number of constraint states:         0
   Number of inputs:                 1890
   Number of outputs:                  25
   Jacobians included in this file?    No

Order of continuous states:
   Row/Column Operating Point                                                   Rotating Frame? Derivative Order Description
   ---------- ---------------                                                   --------------- ---------------- -----------
          1     6.82484722137E+000                                                     F               2         Platform horizontal surge translation DOF (internal DOF index = DOF_Sg), m
          2    -8.27512323856E-001                                                     F               2         Platform horizontal sway translation DOF (internal DOF index = DOF_Sw), m
          3    -1.07336036861E-001                                                     F               2         Platform vertical heave translation DOF (internal DOF index = DOF_Hv), m
          4     5.43620996177E-002                                                     F               2         Platform roll tilt rotation DOF (internal DOF index = DOF_R), rad
          5     9.51440855861E-002                                                     F               2         Platform pitch tilt rotation DOF (internal DOF index = DOF_P), rad
          6    -9.30846855044E-003                                                     F               2         Platform yaw rotation DOF (internal DOF index = DOF_Y), rad
          7     5.68326294422E-001                                                     F               2         1st tower fore-aft bending mode DOF (internal DOF index = DOF_TFA1), m
          8     2.74924784899E-001                                                     F               2         1st tower side-to-side bending mode DOF (internal DOF index = DOF_TSS1), m
          9     1.45292549860E-003                                                     F               2         2nd tower fore-aft bending mode DOF (internal DOF index = DOF_TFA2), m
         10    -3.01208550809E-004                                                     F               2         2nd tower side-to-side bending mode DOF (internal DOF index = DOF_TSS2), m
         11     4.90206432343E+000                                                     F               2         Variable speed generator DOF (internal DOF index = DOF_GeAz), rad
         12    -4.38926368952E-003                                                     F               2         First time derivative of Platform horizontal surge translation DOF (internal DOF index = DOF_Sg), m/s
         13    -1.18504336569E-003                                                     F               2         First time derivative of Platform horizontal sway translation DOF (internal DOF index = DOF_Sw), m/s
         14     2.67720897682E-003                                                     F               2         First time derivative of Platform vertical heave translation DOF (internal DOF index = DOF_Hv), m/s
         15     8.92687239684E-005                                                     F               2         First time derivative of Platform roll tilt rotation DOF (internal DOF index = DOF_R), rad/s
         16    -1.56920446898E-004                                                     F               2         First time derivative of Platform pitch tilt rotation DOF (internal DOF index = DOF_P), rad/s
         17    -2.29484357988E-005                                                     F               2         First time derivative of Platform yaw rotation DOF (internal DOF index = DOF_Y), rad/s
         18     3.23297530413E-002                                                     F               2         First time derivative of 1st tower fore-aft bending mode DOF (internal DOF index = DOF_TFA1), m/s
         19    -1.32264113054E-002                                                     F               2         First time derivative of 1st tower side-to-side bending mode DOF (internal DOF index = DOF_TSS1), m/s
         20     9.20632810448E-005                                                     F               2         First time derivative of 2nd tower fore-aft bending mode DOF (internal DOF index = DOF_TFA2), m/s
         21     5.40848623132E-006                                                     F               2         First time derivative of 2nd tower side-to-side bending mode DOF (internal DOF index = DOF_TSS2), m/s
         22     7.91630268097E-001                                                     F               2         First time derivative of Variable speed generator DOF (internal DOF index = DOF_GeAz), rad/s

Order of continuous state derivatives:
   Row/Column Operating Point                                                   Rotating Frame? Derivative Order Description
   ---------- ---------------                                                   --------------- ---------------- -----------
          1    -4.38926368952E-003                                                     F               2         First time derivative of Platform horizontal surge translation DOF (internal DOF index = DOF_Sg), m/s
          2    -1.18504336569E-003                                                     F               2         First time derivative of Platform horizontal sway translation DOF (internal DOF index = DOF_Sw), m/s
          3     2.67720897682E-003                                                     F               2         First time derivative of Platform vertical heave translation DOF (internal DOF index = DOF_Hv), m/s
          4     8.92687239684E-005                                                     F               2         First time derivative of Platform roll tilt rotation DOF (internal DOF index = DOF_R), rad/s
          5    -1.56920446898E-004                                                     F               2         First time derivative of Platform pitch tilt rotation DOF (internal DOF index = DOF_P), rad/s
          6    -2.29484357988E-005                                                     F               2         First time derivative of Platform yaw rotation DOF (internal DOF index = DOF_Y), rad/s
          7     3.23297530413E-002                                                     F               2         First time derivative of 1st tower fore-aft bending mode DOF (internal DOF index = DOF_TFA1), m/s
          8    -1.32264113054E-002                                                     F               2         First time derivative of 1st tower side-to-side bending mode DOF (internal DOF index = DOF_TSS1), m/s
          9     9.20632810448E-005                                                     F               2         First time derivative of 2nd tower fore-aft bending mode DOF (internal DOF index = DOF_TFA2), m/s
         10     5.40848623132E-006                                                     F               2         First time derivative of 2nd tower side-to-side bending mode DOF (internal DOF index = DOF_TSS2), m/s
         11     7.91630268097E-001                                                     F               2         First time derivative of Variable speed generator DOF (internal DOF index = DOF_GeAz), rad/s
         12     7.88005720824E-003                                                     F               2         First time derivative of First time derivative of Platform horizontal surge translation DOF (internal DOF index = DOF_Sg), m/s/s
         13    -2.75769690052E-003                                                     F               2         First time derivative of First time derivative of Platform horizontal sway translation DOF (internal DOF index = DOF_Sw), m/s/s
         14    -1.53327034786E-003                                                     F               2         First time derivative of First time derivative of Platform vertical heave translation DOF (internal DOF index = DOF_Hv), m/s/s
         15     1.78309550392E-004                                                     F               2         First time derivative of First time derivative of Platform roll tilt rotation DOF (internal DOF index = DOF_R), rad/s/s
         16     4.53347951407E-004                                                     F               2         First time derivative of First time derivative of Platform pitch tilt rotation DOF (internal DOF index = DOF_P), rad/s/s
         17     3.59332916560E-005                                                     F               2         First time derivative of First time derivative of Platform yaw rotation DOF (internal DOF index = DOF_Y), rad/s/s
         18    -9.93747487664E-002                                                     F               2         First time derivative of First time derivative of 1st tower fore-aft bending mode DOF (internal DOF index = DOF_TFA1), m/s/s
         19    -3.68559062481E-002                                                     F               2         First time derivative of First time derivative of 1st tower side-to-side bending mode DOF (internal DOF index = DOF_TSS1), m/s/s
         20     2.67457496375E-003                                                     F               2         First time derivative of First time derivative of 2nd tower fore-aft bending mode DOF (internal DOF index = DOF_TFA2), m/s/s
         21     7.89249461377E-005                                                     F               2         First time derivative of First time derivative of 2nd tower side-to-side bending mode DOF (internal DOF index = DOF_TSS2), m/s/s
         22     8.06750089396E-004                                                     F               2         First time derivative of First time derivative of Variable speed generator DOF (internal DOF index = DOF_GeAz), rad/s/s

Order of inputs:
     Column   Operating Point                                                   Rotating Frame? Derivative Order Description
   ---------- ---------------                                                   --------------- ---------------- -----------
          1     3.77587493896E+002                                                     F               0         Blade 1 X force, node 1, N
          2     1.46411575317E+002                                                     F               0         Blade 1 Y force, node 1, N
          3    -4.10233078003E+001                                                     F               0         Blade 1 Z force, node 1, N
          4     1.48707592773E+003                                                     F               0         Blade 1 X force, node 2, N
          5     2.18087081909E+002                                                     F               0         Blade 1 Y force, node 2, N
          6    -2.54332199097E+002                                                     F               0         Blade 1 Z force, node 2, N
          7     1.69521813965E+003                                                     F               0         Blade 1 X force, node 3, N
          8    -1.96927688599E+002                                                     F               0         Blade 1 Y force, node 3, N
          9    -4.05209777832E+002                                                     F               0         Blade 1 Z force, node 3, N
         10     2.05870678711E+003                                                     F               0         Blade 1 X force, node 4, N
         11    -5.90224060059E+002                                                     F               0         Blade 1 Y force, node 4, N
         12    -5.82931274414E+002                                                     F               0         Blade 1 Z force, node 4, N
         13     2.42221362305E+003                                                     F               0         Blade 1 X force, node 5, N
         14    -9.83528747559E+002                                                     F               0         Blade 1 Y force, node 5, N
         15    -7.60658691406E+002                                                     F               0         Blade 1 Z force, node 5, N
         16     2.78570581055E+003                                                     F               0         Blade 1 X force, node 6, N
         17    -1.37682934570E+003                                                     F               0         Blade 1 Y force, node 6, N
         18    -9.38382141113E+002                                                     F               0         Blade 1 Z force, node 6, N
         19     3.14917773438E+003                                                     F               0         Blade 1 X force, node 7, N
         20    -1.77011816406E+003                                                     F               0         Blade 1 Y force, node 7, N
         21    -1.11609814453E+003                                                     F               0         Blade 1 Z force, node 7, N
         22     3.51266674805E+003                                                     F               0         Blade 1 X force, node 8, N
         23    -2.16341455078E+003                                                     F               0         Blade 1 Y force, node 8, N
         24    -1.29381982422E+003                                                     F               0         Blade 1 Z force, node 8, N
         25     3.87615600586E+003                                                     F               0         Blade 1 X force, node 9, N
         26    -2.55671093750E+003                                                     F               0         Blade 1 Y force, node 9, N
         27    -1.47154138184E+003                                                     F               0         Blade 1 Z force, node 9, N
         28     4.23964453125E+003                                                     F               0         Blade 1 X force, node 10, N
         29    -2.95000732422E+003                                                     F               0         Blade 1 Y force, node 10, N
         30    -1.64926293945E+003                                                     F               0         Blade 1 Z force, node 10, N
         31     4.60313330078E+003                                                     F               0         Blade 1 X force, node 11, N
         32    -3.34330371094E+003                                                     F               0         Blade 1 Y force, node 11, N
         33    -1.82698461914E+003                                                     F               0         Blade 1 Z force, node 11, N
         34     4.96665673828E+003                                                     F               0         Blade 1 X force, node 12, N
         35    -3.73662646484E+003                                                     F               0         Blade 1 Y force, node 12, N
         36    -2.00472021484E+003                                                     F               0         Blade 1 Z force, node 12, N
         37     5.33014892578E+003                                                     F               0         Blade 1 X force, node 13, N
         38    -4.12992724609E+003                                                     F               0         Blade 1 Y force, node 13, N
         39    -2.18244360352E+003                                                     F               0         Blade 1 Z force, node 13, N
         40     5.69360449219E+003                                                     F               0         Blade 1 X force, node 14, N
         41    -4.52319824219E+003                                                     F               0         Blade 1 Y force, node 14, N
         42    -2.36015136719E+003                                                     F               0         Blade 1 Z force, node 14, N
         43     6.05713378906E+003                                                     F               0         Blade 1 X force, node 15, N
         44    -4.91652734375E+003                                                     F               0         Blade 1 Y force, node 15, N
         45    -2.53789013672E+003                                                     F               0         Blade 1 Z force, node 15, N
         46     6.42058007812E+003                                                     F               0         Blade 1 X force, node 16, N
         47    -5.30978906250E+003                                                     F               0         Blade 1 Y force, node 16, N
         48    -2.71559399414E+003                                                     F               0         Blade 1 Z force, node 16, N
         49     7.85204687500E+003                                                     F               0         Blade 1 X force, node 17, N
         50    -6.58713232422E+003                                                     F               0         Blade 1 Y force, node 17, N
         51    -3.34523437500E+003                                                     F               0         Blade 1 Z force, node 17, N
         52     5.87320947266E+003                                                     F               0         Blade 1 X force, node 18, N
         53    -4.85092626953E+003                                                     F               0         Blade 1 Y force, node 18, N
         54    -2.48248095703E+003                                                     F               0         Blade 1 Z force, node 18, N
         55     7.04417529297E+003                                                     F               0         Blade 1 X force, node 19, N
         56    -5.67193603516E+003                                                     F               0         Blade 1 Y force, node 19, N
         57    -2.93961132812E+003                                                     F               0         Blade 1 Z force, node 19, N
         58     5.87743261719E+003                                                     F               0         Blade 1 X force, node 20, N
         59    -4.61475146484E+003                                                     F               0         Blade 1 Y force, node 20, N
         60    -2.42225585938E+003                                                     F               0         Blade 1 Z force, node 20, N
         61     8.46509960938E+003                                                     F               0         Blade 1 X force, node 21, N
         62    -6.45747070312E+003                                                     F               0         Blade 1 Y force, node 21, N
         63    -3.43979809570E+003                                                     F               0         Blade 1 Z force, node 21, N
         64     7.28547949219E+003                                                     F               0         Blade 1 X force, node 22, N
         65    -5.40861962891E+003                                                     F               0         Blade 1 Y force, node 22, N
         66    -2.92190698242E+003                                                     F               0         Blade 1 Z force, node 22, N
         67     7.31530322266E+003                                                     F               0         Blade 1 X force, node 23, N
         68    -5.29500195312E+003                                                     F               0         Blade 1 Y force, node 23, N
         69    -2.89874194336E+003                                                     F               0         Blade 1 Z force, node 23, N
         70     7.47201611328E+003                                                     F               0         Blade 1 X force, node 24, N
         71    -5.27323583984E+003                                                     F               0         Blade 1 Y force, node 24, N
         72    -2.92585913086E+003                                                     F               0         Blade 1 Z force, node 24, N
         73     7.48954296875E+003                                                     F               0         Blade 1 X force, node 25, N
         74    -5.15843554688E+003                                                     F               0         Blade 1 Y force, node 25, N
         75    -2.89981835938E+003                                                     F               0         Blade 1 Z force, node 25, N
         76     7.54779443359E+003                                                     F               0         Blade 1 X force, node 26, N
         77    -5.07406884766E+003                                                     F               0         Blade 1 Y force, node 26, N
         78    -2.89016210938E+003                                                     F               0         Blade 1 Z force, node 26, N
         79     8.84645703125E+003                                                     F               0         Blade 1 X force, node 27, N
         80    -5.79483251953E+003                                                     F               0         Blade 1 Y force, node 27, N
         81    -3.34804003906E+003                                                     F               0         Blade 1 Z force, node 27, N
         82     6.41716552734E+003                                                     F               0         Blade 1 X force, node 28, N
         83    -4.09778515625E+003                                                     F               0         Blade 1 Y force, node 28, N
         84    -2.40128540039E+003                                                     F               0         Blade 1 Z force, node 28, N
         85     7.70750390625E+003                                                     F               0         Blade 1 X force, node 29, N
         86    -4.81565527344E+003                                                     F               0         Blade 1 Y force, node 29, N
         87    -2.85667480469E+003                                                     F               0         Blade 1 Z force, node 29, N
         88     6.44202099609E+003                                                     F               0         Blade 1 X force, node 30, N
         89    -3.93771582031E+003                                                     F               0         Blade 1 Y force, node 30, N
         90    -2.36506323242E+003                                                     F               0         Blade 1 Z force, node 30, N
         91     9.10950292969E+003                                                     F               0         Blade 1 X force, node 31, N
         92    -5.42599218750E+003                                                     F               0         Blade 1 Y force, node 31, N
         93    -3.30757568359E+003                                                     F               0         Blade 1 Z force, node 31, N
         94     7.81719726562E+003                                                     F               0         Blade 1 X force, node 32, N
         95    -4.53626318359E+003                                                     F               0         Blade 1 Y force, node 32, N
         96    -2.80730810547E+003                                                     F               0         Blade 1 Z force, node 32, N
         97     7.83694042969E+003                                                     F               0         Blade 1 X force, node 33, N
         98    -4.43560742188E+003                                                     F               0         Blade 1 Y force, node 33, N
         99    -2.78539013672E+003                                                     F               0         Blade 1 Z force, node 33, N
        100     7.84985791016E+003                                                     F               0         Blade 1 X force, node 34, N
        101    -4.33300830078E+003                                                     F               0         Blade 1 Y force, node 34, N
        102    -2.76154272461E+003                                                     F               0         Blade 1 Z force, node 34, N
        103     7.82743798828E+003                                                     F               0         Blade 1 X force, node 35, N
        104    -4.21809814453E+003                                                     F               0         Blade 1 Y force, node 35, N
        105    -2.72712597656E+003                                                     F               0         Blade 1 Z force, node 35, N
        106     7.79410107422E+003                                                     F               0         Blade 1 X force, node 36, N
        107    -4.09898535156E+003                                                     F               0         Blade 1 Y force, node 36, N
        108    -2.68934008789E+003                                                     F               0         Blade 1 Z force, node 36, N
        109     9.06224609375E+003                                                     F               0         Blade 1 X force, node 37, N
        110    -4.64077490234E+003                                                     F               0         Blade 1 Y force, node 37, N
        111    -3.09453271484E+003                                                     F               0         Blade 1 Z force, node 37, N
        112     6.39266552734E+003                                                     F               0         Blade 1 X force, node 38, N
        113    -3.19351489258E+003                                                     F               0         Blade 1 Y force, node 38, N
        114    -2.16219384766E+003                                                     F               0         Blade 1 Z force, node 38, N
        115     7.61297607422E+003                                                     F               0         Blade 1 X force, node 39, N
        116    -3.72473950195E+003                                                     F               0         Blade 1 Y force, node 39, N
        117    -2.55465698242E+003                                                     F               0         Blade 1 Z force, node 39, N
        118     6.30863427734E+003                                                     F               0         Blade 1 X force, node 40, N
        119    -3.02008666992E+003                                                     F               0         Blade 1 Y force, node 40, N
        120    -2.09976074219E+003                                                     F               0         Blade 1 Z force, node 40, N
        121     8.65001171875E+003                                                     F               0         Blade 1 X force, node 41, N
        122    -4.03703417969E+003                                                     F               0         Blade 1 Y force, node 41, N
        123    -2.85217382812E+003                                                     F               0         Blade 1 Z force, node 41, N
        124     7.30088964844E+003                                                     F               0         Blade 1 X force, node 42, N
        125    -3.32496826172E+003                                                     F               0         Blade 1 Y force, node 42, N
        126    -2.38600146484E+003                                                     F               0         Blade 1 Z force, node 42, N
        127     7.17029150391E+003                                                     F               0         Blade 1 X force, node 43, N
        128    -3.18728808594E+003                                                     F               0         Blade 1 Y force, node 43, N
        129    -2.32308642578E+003                                                     F               0         Blade 1 Z force, node 43, N
        130     7.07077880859E+003                                                     F               0         Blade 1 X force, node 44, N
        131    -3.06516235352E+003                                                     F               0         Blade 1 Y force, node 44, N
        132    -2.27069189453E+003                                                     F               0         Blade 1 Z force, node 44, N
        133     6.83757910156E+003                                                     F               0         Blade 1 X force, node 45, N
        134    -2.89460449219E+003                                                     F               0         Blade 1 Y force, node 45, N