
Linearized model: Predictions were generated on 13-Feb-2024 at 11:29:37 using OpenFAST, compiled as a 64-bit application using single precision at commit v3.5.1
 linked with  NWTC Subroutine Library; ElastoDyn; InflowWind; AeroDyn; ServoDyn; HydroDyn; MAP++ (<1.20.10>, <Oct-20-2023>)

Description from the FAST input file: CCT-9 Campign 4 model. Input files to be run with OpenFAST 3.5.0. GitHub branch from Lu Wang (https://github.com/luwang00/openfast/tree/dev) compiled on March 7, 2023.

Simulation information:
   Simulation time:                  1211.9500 s
   Rotor Speed:                         0.7915 rad/s
   Azimuth:                             0.8906 rad
   Wind Speed:                         16.0000 m/s
   Number of continuous states:         0
   Number of discrete states:           0
   Number of constraint states:         0
   Number of inputs:                   37
   Number of outputs:                   7
   Jacobians included in this file?    No

Order of inputs:
     Column   Operating Point                                                   Rotating Frame? Derivative Order Description
   ---------- ---------------                                                   --------------- ---------------- -----------
          1     8.64540100098E+000                                                     F               0         WAMIT X translation displacement, node 1, m
          2    -6.19431853294E-001                                                     F               0         WAMIT Y translation displacement, node 1, m
          3    -1.29518598318E-001                                                     F               0         WAMIT Z translation displacement, node 1, m
          4     9.93685483932E-001,   3.40614211746E-003,  -1.12149827182E-001         F               0         WAMIT X orientation angle, node 1, rad
          5     2.37150071189E-003,   9.98678207397E-001,   5.13435117900E-002         F               0         WAMIT Y orientation angle, node 1, rad
          6     1.12176470459E-001,  -5.12852668762E-002,   9.92363989353E-001         F               0         WAMIT Z orientation angle, node 1, rad
          7     1.24983580463E-005                                                     F               0         WAMIT X translation velocity, node 1, m/s
          8     5.91127085499E-004                                                     F               0         WAMIT Y translation velocity, node 1, m/s
          9     9.76310926490E-004                                                     F               0         WAMIT Z translation velocity, node 1, m/s
         10    -3.68886539945E-005                                                     F               0         WAMIT X rotation velocity, node 1, rad/s
         11     3.68619475921E-006                                                     F               0         WAMIT Y rotation velocity, node 1, rad/s
         12     1.03308948383E-005                                                     F               0         WAMIT Z rotation velocity, node 1, rad/s
         13    -3.29467089614E-004                                                     F               0         WAMIT X translation acceleration, node 1, m/s^2
         14     3.37090052199E-004                                                     F               0         WAMIT Y translation acceleration, node 1, m/s^2
         15    -2.12204083800E-003                                                     F               0         WAMIT Z translation acceleration, node 1, m/s^2
         16    -1.41138007166E-005                                                     F               0         WAMIT X rotation acceleration, node 1, rad/s^2
         17    -2.36258601944E-005                                                     F               0         WAMIT Y rotation acceleration, node 1, rad/s^2
         18     9.96153175947E-007                                                     F               0         WAMIT Z rotation acceleration, node 1, rad/s^2
         19     8.64540100098E+000                                                     F               0         Platform-RefPt X translation displacement, node 1, m
         20    -6.19431853294E-001                                                     F               0         Platform-RefPt Y translation displacement, node 1, m
         21    -1.29518598318E-001                                                     F               0         Platform-RefPt Z translation displacement, node 1, m
         22     9.93685483932E-001,   3.40614211746E-003,  -1.12149827182E-001         F               0         Platform-RefPt X orientation angle, node 1, rad
         23     2.37150071189E-003,   9.98678207397E-001,   5.13435117900E-002         F               0         Platform-RefPt Y orientation angle, node 1, rad
         24     1.12176470459E-001,  -5.12852668762E-002,   9.92363989353E-001         F               0         Platform-RefPt Z orientation angle, node 1, rad
         25     1.24983580463E-005                                                     F               0         Platform-RefPt X translation velocity, node 1, m/s
         26     5.91127085499E-004                                                     F               0         Platform-RefPt Y translation velocity, node 1, m/s
         27     9.76310926490E-004                                                     F               0         Platform-RefPt Z translation velocity, node 1, m/s
         28    -3.68886539945E-005                                                     F               0         Platform-RefPt X rotation velocity, node 1, rad/s
         29     3.68619475921E-006                                                     F               0         Platform-RefPt Y rotation velocity, node 1, rad/s
         30     1.03308948383E-005                                                     F               0         Platform-RefPt Z rotation velocity, node 1, rad/s
         31    -3.29467089614E-004                                                     F               0         Platform-RefPt X translation acceleration, node 1, m/s^2
         32     3.37090052199E-004                                                     F               0         Platform-RefPt Y translation acceleration, node 1, m/s^2
         33    -2.12204083800E-003                                                     F               0         Platform-RefPt Z translation acceleration, node 1, m/s^2
         34    -1.41138007166E-005                                                     F               0         Platform-RefPt X rotation acceleration, node 1, rad/s^2
         35    -2.36258601944E-005                                                     F               0         Platform-RefPt Y rotation acceleration, node 1, rad/s^2
         36     9.96153175947E-007                                                     F               0         Platform-RefPt Z rotation acceleration, node 1, rad/s^2
         37     0.00000000000E+000                                                     F               0         Extended input: wave elevation at platform ref point, m

Order of outputs:
        Row   Operating Point                                                   Rotating Frame? Derivative Order Description
   ---------- ---------------                                                   --------------- ---------------- -----------
          1     0.00000000000E+000                                                     F               0         Wave1Elev, (m)
          2    -5.85404804688E+004                                                     F               0         HydroFxi, (N)
          3    -1.87022192383E+003                                                     F               0         HydroFyi, (N)
          4     2.03955680000E+008                                                     F               0         HydroFzi, (N)
          5    -1.10221800000E+008                                                     F               0         HydroMxi, (N-m)
          6    -2.40962176000E+008                                                     F               0         HydroMyi, (N-m)
          7    -1.95237675781E+004                                                     F               0         HydroMzi, (N-m)


Linearized state matrices:

D: 7 x 37
     0.00000000000E+000   0.00000000000E+000   0.00000000000E+000   0.00000000000E+000   0.00000000000E+000   0.00000000000E+000   0.00000000000E+000   0.00000000000E+000   0.00000000000E+000   0.00000000000E+000   0.00000000000E+000   0.00000000000E+000   0.00000000000E+000   0.00000000000E+000   0.00000000000E+000   0.00000000000E+000   0.00000000000E+000   0.00000000000E+000   0.00000000000E+000   0.00000000000E+000   0.00000000000E+000   0.00000000000E+000   0.00000000000E+000   0.00000000000E+000   0.00000000000E+000   0.00000000000E+000   0.00000000000E+000   0.00000000000E+000   0.00000000000E+000   0.00000000000E+000   0.00000000000E+000   0.00000000000E+000   0.00000000000E+000   0.00000000000E+000   0.00000000000E+000   0.00000000000E+000   0.00000000000E+000
    -6.85995498612E+003   0.00000000000E+000   0.00000000000E+000   0.00000000000E+000   0.00000000000E+000   0.00000000000E+000  -2.82173032513E+005   0.00000000000E+000   0.00000000000E+000   0.00000000000E+000   0.00000000000E+000   0.00000000000E+000  -9.38083896931E+006   0.00000000000E+000   1.99512100047E+001   0.00000000000E+000   9.82680351759E+007   0.00000000000E+000   0.00000000000E+000   0.00000000000E+000   0.00000000000E+000   0.00000000000E+000   0.00000000000E+000   0.00000000000E+000   0.00000000000E+000   0.00000000000E+000   0.00000000000E+000   0.00000000000E+000   0.00000000000E+000   0.00000000000E+000   0.00000000000E+000   0.00000000000E+000   0.00000000000E+000   0.00000000000E+000   0.00000000000E+000   0.00000000000E+000   0.00000000000E+000
     0.00000000000E+000   0.00000000000E+000   0.00000000000E+000   0.00000000000E+000   0.00000000000E+000   0.00000000000E+000   0.00000000000E+000  -2.82175910091E+005   0.00000000000E+000   0.00000000000E+000   0.00000000000E+000   0.00000000000E+000   0.00000000000E+000  -9.38088807999E+006   0.00000000000E+000  -9.82662446828E+007   0.00000000000E+000   1.78567942486E+003   0.00000000000E+000   0.00000000000E+000   0.00000000000E+000   0.00000000000E+000   0.00000000000E+000   0.00000000000E+000   0.00000000000E+000   0.00000000000E+000   0.00000000000E+000   0.00000000000E+000   0.00000000000E+000   0.00000000000E+000   0.00000000000E+000   0.00000000000E+000   0.00000000000E+000   0.00000000000E+000   0.00000000000E+000   0.00000000000E+000   0.00000000000E+000
     0.00000000000E+000   0.00000000000E+000  -4.39488118772E+006   0.00000000000E+000   3.89611303707E+003   0.00000000000E+000   0.00000000000E+000   0.00000000000E+000  -8.06331733325E+005   0.00000000000E+000   0.00000000000E+000   0.00000000000E+000   0.00000000000E+000   0.00000000000E+000  -2.41345551631E+007   0.00000000000E+000   1.78762833466E+004   0.00000000000E+000   0.00000000000E+000   0.00000000000E+000   0.00000000000E+000   0.00000000000E+000   0.00000000000E+000   0.00000000000E+000   0.00000000000E+000   0.00000000000E+000   0.00000000000E+000   0.00000000000E+000   0.00000000000E+000   0.00000000000E+000   0.00000000000E+000   0.00000000000E+000   0.00000000000E+000   0.00000000000E+000   0.00000000000E+000   0.00000000000E+000   0.00000000000E+000
     0.00000000000E+000   2.03955731760E+008   1.86620548967E+003  -2.13421440373E+009   0.00000000000E+000   8.88084589332E+004   0.00000000000E+000   0.00000000000E+000   0.00000000000E+000  -2.78327635435E+009  -1.14591559914E+002   0.00000000000E+000   0.00000000000E+000  -9.82010424842E+007   0.00000000000E+000  -1.13246530020E+010  -1.14591559914E+002   5.30558922401E+004   0.00000000000E+000  -2.03955731760E+008  -1.86620548967E+003   0.00000000000E+000   0.00000000000E+000   0.00000000000E+000   0.00000000000E+000   0.00000000000E+000   0.00000000000E+000   0.00000000000E+000   0.00000000000E+000   0.00000000000E+000   0.00000000000E+000   0.00000000000E+000   0.00000000000E+000   0.00000000000E+000   0.00000000000E+000   0.00000000000E+000   0.00000000000E+000
    -2.03955699020E+008   0.00000000000E+000  -5.46765468025E+004   0.00000000000E+000  -2.13398086613E+009   0.00000000000E+000   0.00000000000E+000   0.00000000000E+000   0.00000000000E+000   0.00000000000E+000  -2.78327383333E+009   0.00000000000E+000   9.82037272008E+007   0.00000000000E+000   1.93168638404E+004   0.00000000000E+000  -1.13240534590E+010   0.00000000000E+000   2.03955699020E+008   0.00000000000E+000   5.85399195706E+004   0.00000000000E+000   0.00000000000E+000   0.00000000000E+000   0.00000000000E+000   0.00000000000E+000   0.00000000000E+000   0.00000000000E+000   0.00000000000E+000   0.00000000000E+000   0.00000000000E+000   0.00000000000E+000   0.00000000000E+000   0.00000000000E+000   0.00000000000E+000   0.00000000000E+000   0.00000000000E+000
    -1.87022610611E+003   5.85404870930E+004   0.00000000000E+000   0.00000000000E+000   0.00000000000E+000   0.00000000000E+000   0.00000000000E+000   0.00000000000E+000   0.00000000000E+000   0.00000000000E+000   0.00000000000E+000  -2.51327434578E+009   0.00000000000E+000   1.55378041185E+003   0.00000000000E+000   4.40409831741E+004   0.00000000000E+000  -1.95913504720E+010   1.87022610611E+003  -5.85404870930E+004   0.00000000000E+000   0.00000000000E+000   0.00000000000E+000   0.00000000000E+000   0.00000000000E+000   0.00000000000E+000   0.00000000000E+000   0.00000000000E+000   0.00000000000E+000   0.00000000000E+000   0.00000000000E+000   0.00000000000E+000   0.00000000000E+000   0.00000000000E+000   0.00000000000E+000   0.00000000000E+000   0.00000000000E+000
