
Linearized model: Predictions were generated on 13-Feb-2024 at 12:12:09 using OpenFAST, compiled as a 64-bit application using single precision at commit v3.5.1
 linked with  NWTC Subroutine Library; ElastoDyn; InflowWind; AeroDyn; ServoDyn; HydroDyn; MAP++ (<1.20.10>, <Oct-20-2023>)

Description from the FAST input file: CCT-9 Campign 4 model. Input files to be run with OpenFAST 3.5.0. GitHub branch from Lu Wang (https://github.com/luwang00/openfast/tree/dev) compiled on March 7, 2023.

Simulation information:
   Simulation time:                   776.8500 s
   Rotor Speed:                         0.7923 rad/s
   Azimuth:                             5.0797 rad
   Wind Speed:                         24.0000 m/s
   Number of continuous states:        22
   Number of discrete states:           0
   Number of constraint states:         0
   Number of inputs:                 1890
   Number of outputs:                  25
   Jacobians included in this file?    No

Order of continuous states:
   Row/Column Operating Point                                                   Rotating Frame? Derivative Order Description
   ---------- ---------------                                                   --------------- ---------------- -----------
          1     6.82484054565E+000                                                     F               2         Platform horizontal surge translation DOF (internal DOF index = DOF_Sg), m
          2    -8.23595345020E-001                                                     F               2         Platform horizontal sway translation DOF (internal DOF index = DOF_Sw), m
          3    -1.16167649627E-001                                                     F               2         Platform vertical heave translation DOF (internal DOF index = DOF_Hv), m
          4     5.44109791517E-002                                                     F               2         Platform roll tilt rotation DOF (internal DOF index = DOF_R), rad
          5     9.51785743237E-002                                                     F               2         Platform pitch tilt rotation DOF (internal DOF index = DOF_P), rad
          6    -9.28093586117E-003                                                     F               2         Platform yaw rotation DOF (internal DOF index = DOF_Y), rad
          7     5.49226880074E-001                                                     F               2         1st tower fore-aft bending mode DOF (internal DOF index = DOF_TFA1), m
          8     2.58442997932E-001                                                     F               2         1st tower side-to-side bending mode DOF (internal DOF index = DOF_TSS1), m
          9     1.49787450209E-003                                                     F               2         2nd tower fore-aft bending mode DOF (internal DOF index = DOF_TFA2), m
         10    -2.90028081508E-004                                                     F               2         2nd tower side-to-side bending mode DOF (internal DOF index = DOF_TSS2), m
         11     3.50889825821E+000                                                     F               2         Variable speed generator DOF (internal DOF index = DOF_GeAz), rad
         12     5.46157173812E-003                                                     F               2         First time derivative of Platform horizontal surge translation DOF (internal DOF index = DOF_Sg), m/s
         13     8.51262419019E-004                                                     F               2         First time derivative of Platform horizontal sway translation DOF (internal DOF index = DOF_Sw), m/s
         14    -5.12738758698E-003                                                     F               2         First time derivative of Platform vertical heave translation DOF (internal DOF index = DOF_Hv), m/s
         15     2.35340230574E-005                                                     F               2         First time derivative of Platform roll tilt rotation DOF (internal DOF index = DOF_R), rad/s
         16     2.34276609262E-004                                                     F               2         First time derivative of Platform pitch tilt rotation DOF (internal DOF index = DOF_P), rad/s
         17     3.32223135047E-005                                                     F               2         First time derivative of Platform yaw rotation DOF (internal DOF index = DOF_Y), rad/s
         18    -5.65180629492E-002                                                     F               2         First time derivative of 1st tower fore-aft bending mode DOF (internal DOF index = DOF_TFA1), m/s
         19    -1.21903819963E-002                                                     F               2         First time derivative of 1st tower side-to-side bending mode DOF (internal DOF index = DOF_TSS1), m/s
         20    -4.14275818912E-005                                                     F               2         First time derivative of 2nd tower fore-aft bending mode DOF (internal DOF index = DOF_TFA2), m/s
         21     9.24788673728E-006                                                     F               2         First time derivative of 2nd tower side-to-side bending mode DOF (internal DOF index = DOF_TSS2), m/s
         22     7.92344689369E-001                                                     F               2         First time derivative of Variable speed generator DOF (internal DOF index = DOF_GeAz), rad/s

Order of continuous state derivatives:
   Row/Column Operating Point                                                   Rotating Frame? Derivative Order Description
   ---------- ---------------                                                   --------------- ---------------- -----------
          1     5.46157173812E-003                                                     F               2         First time derivative of Platform horizontal surge translation DOF (internal DOF index = DOF_Sg), m/s
          2     8.51262419019E-004                                                     F               2         First time derivative of Platform horizontal sway translation DOF (internal DOF index = DOF_Sw), m/s
          3    -5.12738758698E-003                                                     F               2         First time derivative of Platform vertical heave translation DOF (internal DOF index = DOF_Hv), m/s
          4     2.35340230574E-005                                                     F               2         First time derivative of Platform roll tilt rotation DOF (internal DOF index = DOF_R), rad/s
          5     2.34276609262E-004                                                     F               2         First time derivative of Platform pitch tilt rotation DOF (internal DOF index = DOF_P), rad/s
          6     3.32223135047E-005                                                     F               2         First time derivative of Platform yaw rotation DOF (internal DOF index = DOF_Y), rad/s
          7    -5.65180629492E-002                                                     F               2         First time derivative of 1st tower fore-aft bending mode DOF (internal DOF index = DOF_TFA1), m/s
          8    -1.21903819963E-002                                                     F               2         First time derivative of 1st tower side-to-side bending mode DOF (internal DOF index = DOF_TSS1), m/s
          9    -4.14275818912E-005                                                     F               2         First time derivative of 2nd tower fore-aft bending mode DOF (internal DOF index = DOF_TFA2), m/s
         10     9.24788673728E-006                                                     F               2         First time derivative of 2nd tower side-to-side bending mode DOF (internal DOF index = DOF_TSS2), m/s
         11     7.92344689369E-001                                                     F               2         First time derivative of Variable speed generator DOF (internal DOF index = DOF_GeAz), rad/s
         12     7.84073956311E-004                                                     F               2         First time derivative of First time derivative of Platform horizontal surge translation DOF (internal DOF index = DOF_Sg), m/s/s
         13     4.56195836887E-003                                                     F               2         First time derivative of First time derivative of Platform horizontal sway translation DOF (internal DOF index = DOF_Sw), m/s/s
         14    -4.88926598337E-004                                                     F               2         First time derivative of First time derivative of Platform vertical heave translation DOF (internal DOF index = DOF_Hv), m/s/s
         15    -2.66179908067E-004                                                     F               2         First time derivative of First time derivative of Platform roll tilt rotation DOF (internal DOF index = DOF_R), rad/s/s
         16     2.01280145120E-005                                                     F               2         First time derivative of First time derivative of Platform pitch tilt rotation DOF (internal DOF index = DOF_P), rad/s/s
         17     4.57071018900E-006                                                     F               2         First time derivative of First time derivative of Platform yaw rotation DOF (internal DOF index = DOF_Y), rad/s/s
         18    -1.01174460724E-004                                                     F               2         First time derivative of First time derivative of 1st tower fore-aft bending mode DOF (internal DOF index = DOF_TFA1), m/s/s
         19     4.27591465414E-002                                                     F               2         First time derivative of First time derivative of 1st tower side-to-side bending mode DOF (internal DOF index = DOF_TSS1), m/s/s
         20     1.12144520972E-003                                                     F               2         First time derivative of First time derivative of 2nd tower fore-aft bending mode DOF (internal DOF index = DOF_TFA2), m/s/s
         21    -9.72414563876E-005                                                     F               2         First time derivative of First time derivative of 2nd tower side-to-side bending mode DOF (internal DOF index = DOF_TSS2), m/s/s
         22    -2.47010873863E-004                                                     F               2         First time derivative of First time derivative of Variable speed generator DOF (internal DOF index = DOF_GeAz), rad/s/s

Order of inputs:
     Column   Operating Point                                                   Rotating Frame? Derivative Order Description
   ---------- ---------------                                                   --------------- ---------------- -----------
          1     3.56635925293E+002                                                     F               0         Blade 1 X force, node 1, N
          2     6.14100360870E+000                                                     F               0         Blade 1 Y force, node 1, N
          3    -8.84961929321E+001                                                     F               0         Blade 1 Z force, node 1, N
          4     1.38915417480E+003                                                     F               0         Blade 1 X force, node 2, N
          5    -1.30660810471E+001                                                     F               0         Blade 1 Y force, node 2, N
          6    -2.61328857422E+002                                                     F               0         Blade 1 Z force, node 2, N
          7     1.53186791992E+003                                                     F               0         Blade 1 X force, node 3, N
          8    -9.78902816772E+001                                                     F               0         Blade 1 Y force, node 3, N
          9    -9.99836425781E+001                                                     F               0         Blade 1 Z force, node 3, N
         10     1.81881726074E+003                                                     F               0         Blade 1 X force, node 4, N
         11    -1.85132385254E+002                                                     F               0         Blade 1 Y force, node 4, N
         12     3.66202583313E+001                                                     F               0         Blade 1 Z force, node 4, N
         13     2.10578198242E+003                                                     F               0         Blade 1 X force, node 5, N
         14    -2.72376647949E+002                                                     F               0         Blade 1 Y force, node 5, N
         15     1.73225906372E+002                                                     F               0         Blade 1 Z force, node 5, N
         16     2.39273437500E+003                                                     F               0         Blade 1 X force, node 6, N
         17    -3.59619720459E+002                                                     F               0         Blade 1 Y force, node 6, N
         18     3.09831268311E+002                                                     F               0         Blade 1 Z force, node 6, N
         19     2.67966870117E+003                                                     F               0         Blade 1 X force, node 7, N
         20    -4.46859741211E+002                                                     F               0         Blade 1 Y force, node 7, N
         21     4.46433715820E+002                                                     F               0         Blade 1 Z force, node 7, N
         22     2.96661791992E+003                                                     F               0         Blade 1 X force, node 8, N
         23    -5.34101806641E+002                                                     F               0         Blade 1 Y force, node 8, N
         24     5.83037597656E+002                                                     F               0         Blade 1 Z force, node 8, N
         25     3.25356713867E+003                                                     F               0         Blade 1 X force, node 9, N
         26    -6.21343933105E+002                                                     F               0         Blade 1 Y force, node 9, N
         27     7.19641601562E+002                                                     F               0         Blade 1 Z force, node 9, N
         28     3.54051660156E+003                                                     F               0         Blade 1 X force, node 10, N
         29    -7.08585998535E+002                                                     F               0         Blade 1 Y force, node 10, N
         30     8.56245483398E+002                                                     F               0         Blade 1 Z force, node 10, N
         31     3.82746582031E+003                                                     F               0         Blade 1 X force, node 11, N
         32    -7.95828125000E+002                                                     F               0         Blade 1 Y force, node 11, N
         33     9.92849304199E+002                                                     F               0         Blade 1 Z force, node 11, N
         34     4.11444384766E+003                                                     F               0         Blade 1 X force, node 12, N
         35    -8.83076416016E+002                                                     F               0         Blade 1 Y force, node 12, N
         36     1.12946130371E+003                                                     F               0         Blade 1 Z force, node 12, N
         37     4.40139599609E+003                                                     F               0         Blade 1 X force, node 13, N
         38    -9.70319335938E+002                                                     F               0         Blade 1 Y force, node 13, N
         39     1.26606677246E+003                                                     F               0         Blade 1 Z force, node 13, N
         40     4.68831787109E+003                                                     F               0         Blade 1 X force, node 14, N
         41    -1.05755554199E+003                                                     F               0         Blade 1 Y force, node 14, N
         42     1.40266284180E+003                                                     F               0         Blade 1 Z force, node 14, N
         43     4.97529980469E+003                                                     F               0         Blade 1 X force, node 15, N
         44    -1.14480529785E+003                                                     F               0         Blade 1 Y force, node 15, N
         45     1.53927709961E+003                                                     F               0         Blade 1 Z force, node 15, N
         46     5.26221533203E+003                                                     F               0         Blade 1 X force, node 16, N
         47    -1.23203930664E+003                                                     F               0         Blade 1 Y force, node 16, N
         48     1.67587011719E+003                                                     F               0         Blade 1 Z force, node 16, N
         49     6.41192626953E+003                                                     F               0         Blade 1 X force, node 17, N
         50    -1.52157897949E+003                                                     F               0         Blade 1 Y force, node 17, N
         51     2.08791528320E+003                                                     F               0         Blade 1 Z force, node 17, N
         52     4.70864453125E+003                                                     F               0         Blade 1 X force, node 18, N
         53    -1.10210363770E+003                                                     F               0         Blade 1 Y force, node 18, N
         54     1.49883239746E+003                                                     F               0         Blade 1 Z force, node 18, N
         55     5.52415136719E+003                                                     F               0         Blade 1 X force, node 19, N
         56    -1.26269201660E+003                                                     F               0         Blade 1 Y force, node 19, N
         57     1.69014062500E+003                                                     F               0         Blade 1 Z force, node 19, N
         58     4.50986376953E+003                                                     F               0         Blade 1 X force, node 20, N
         59    -1.00590454102E+003                                                     F               0         Blade 1 Y force, node 20, N
         60     1.32358117676E+003                                                     F               0         Blade 1 Z force, node 20, N
         61     6.34206542969E+003                                                     F               0         Blade 1 X force, node 21, N
         62    -1.37944506836E+003                                                     F               0         Blade 1 Y force, node 21, N
         63     1.78212707520E+003                                                     F               0         Blade 1 Z force, node 21, N
         64     5.34778857422E+003                                                     F               0         Blade 1 X force, node 22, N
         65    -1.14479309082E+003                                                     F               0         Blade 1 Y force, node 22, N
         66     1.46127880859E+003                                                     F               0         Blade 1 Z force, node 22, N
         67     5.26994726562E+003                                                     F               0         Blade 1 X force, node 23, N
         68    -1.11194665527E+003                                                     F               0         Blade 1 Y force, node 23, N
         69     1.40352746582E+003                                                     F               0         Blade 1 Z force, node 23, N
         70     5.29922607422E+003                                                     F               0         Blade 1 X force, node 24, N
         71    -1.10542980957E+003                                                     F               0         Blade 1 Y force, node 24, N
         72     1.38270764160E+003                                                     F               0         Blade 1 Z force, node 24, N
         73     5.29456201172E+003                                                     F               0         Blade 1 X force, node 25, N
         74    -1.10708312988E+003                                                     F               0         Blade 1 Y force, node 25, N
         75     1.38741064453E+003                                                     F               0         Blade 1 Z force, node 25, N
         76     5.33458349609E+003                                                     F               0         Blade 1 X force, node 26, N
         77    -1.12175549316E+003                                                     F               0         Blade 1 Y force, node 26, N
         78     1.41210937500E+003                                                     F               0         Blade 1 Z force, node 26, N
         79     6.26126513672E+003                                                     F               0         Blade 1 X force, node 27, N
         80    -1.32508068848E+003                                                     F               0         Blade 1 Y force, node 27, N
         81     1.67648718262E+003                                                     F               0         Blade 1 Z force, node 27, N
         82     4.62196923828E+003                                                     F               0         Blade 1 X force, node 28, N
         83    -9.89338745117E+002                                                     F               0         Blade 1 Y force, node 28, N
         84     1.26277026367E+003                                                     F               0         Blade 1 Z force, node 28, N
         85     5.67006103516E+003                                                     F               0         Blade 1 X force, node 29, N
         86    -1.22737634277E+003                                                     F               0         Blade 1 Y force, node 29, N
         87     1.57998596191E+003                                                     F               0         Blade 1 Z force, node 29, N
         88     4.83675341797E+003                                                     F               0         Blade 1 X force, node 30, N
         89    -1.05801940918E+003                                                     F               0         Blade 1 Y force, node 30, N
         90     1.37263696289E+003                                                     F               0         Blade 1 Z force, node 30, N
         91     7.17756445312E+003                                                     F               0         Blade 1 X force, node 31, N
         92    -1.59084301758E+003                                                     F               0         Blade 1 Y force, node 31, N
         93     2.08378979492E+003                                                     F               0         Blade 1 Z force, node 31, N
         94     6.74956689453E+003                                                     F               0         Blade 1 X force, node 32, N
         95    -1.51721362305E+003                                                     F               0         Blade 1 Y force, node 32, N
         96     2.00739782715E+003                                                     F               0         Blade 1 Z force, node 32, N
         97     7.34592431641E+003                                                     F               0         Blade 1 X force, node 33, N
         98    -1.66969714355E+003                                                     F               0         Blade 1 Y force, node 33, N
         99     2.22630834961E+003                                                     F               0         Blade 1 Z force, node 33, N
        100     7.86385888672E+003                                                     F               0         Blade 1 X force, node 34, N
        101    -1.79751867676E+003                                                     F               0         Blade 1 Y force, node 34, N
        102     2.40604003906E+003                                                     F               0         Blade 1 Z force, node 34, N
        103     8.06059228516E+003                                                     F               0         Blade 1 X force, node 35, N
        104    -1.82499438477E+003                                                     F               0         Blade 1 Y force, node 35, N
        105     2.42679711914E+003                                                     F               0         Blade 1 Z force, node 35, N
        106     8.17491064453E+003                                                     F               0         Blade 1 X force, node 36, N
        107    -1.82690625000E+003                                                     F               0         Blade 1 Y force, node 36, N
        108     2.40717749023E+003                                                     F               0         Blade 1 Z force, node 36, N
        109     9.68943554688E+003                                                     F               0         Blade 1 X force, node 37, N
        110    -2.13552465820E+003                                                     F               0         Blade 1 Y force, node 37, N
        111     2.78586816406E+003                                                     F               0         Blade 1 Z force, node 37, N
        112     6.95708984375E+003                                                     F               0         Blade 1 X force, node 38, N
        113    -1.50917041016E+003                                                     F               0         Blade 1 Y force, node 38, N
        114     1.94582702637E+003                                                     F               0         Blade 1 Z force, node 38, N
        115     8.40666015625E+003                                                     F               0         Blade 1 X force, node 39, N
        116    -1.79730908203E+003                                                     F               0         Blade 1 Y force, node 39, N
        117     2.29194604492E+003                                                     F               0         Blade 1 Z force, node 39, N
        118     7.06939794922E+003                                                     F               0         Blade 1 X force, node 40, N
        119    -1.48941577148E+003                                                     F               0         Blade 1 Y force, node 40, N
        120     1.87778527832E+003                                                     F               0         Blade 1 Z force, node 40, N
        121     9.87638867188E+003                                                     F               0         Blade 1 X force, node 41, N
        122    -2.04356188965E+003                                                     F               0         Blade 1 Y force, node 41, N
        123     2.53942260742E+003                                                     F               0         Blade 1 Z force, node 41, N
        124     8.52179882812E+003                                                     F               0         Blade 1 X force, node 42, N
        125    -1.72828881836E+003                                                     F               0         Blade 1 Y force, node 42, N
        126     2.11225219727E+003                                                     F               0         Blade 1 Z force, node 42, N
        127     8.54983203125E+003                                                     F               0         Blade 1 X force, node 43, N
        128    -1.70089721680E+003                                                     F               0         Blade 1 Y force, node 43, N
        129     2.04463574219E+003                                                     F               0         Blade 1 Z force, node 43, N
        130     8.61492871094E+003                                                     F               0         Blade 1 X force, node 44, N
        131    -1.68055029297E+003                                                     F               0         Blade 1 Y force, node 44, N
        132     1.98514147949E+003                                                     F               0         Blade 1 Z force, node 44, N
        133     8.51148242188E+003                                                     F               0         Blade 1 X force, node 45, N
        134    -1.62697851562E+003                                                     F               0         Blade 1 Y force, node 45, N