
Linearized model: Predictions were generated on 12-Jan-2024 at 09:28:28 using OpenFAST, compiled as a 64-bit application using single precision at commit v3.5.1
 linked with  NWTC Subroutine Library; ElastoDyn; InflowWind; AeroDyn; ServoDyn; HydroDyn; MAP++ (<1.20.10>, <Oct-20-2023>)

Description from the FAST input file: CCT-9 Campign 4 model. Input files to be run with OpenFAST 3.5.0. GitHub branch from Lu Wang (https://github.com/luwang00/openfast/tree/dev) compiled on March 7, 2023.

Simulation information:
   Simulation time:                   501.2500 s
   Rotor Speed:                         0.8768 rad/s
   Azimuth:                             4.9527 rad
   Wind Speed:                         10.0000 m/s
   Number of continuous states:        22
   Number of discrete states:           0
   Number of constraint states:         0
   Number of inputs:                 3988
   Number of outputs:                  58
   Jacobians included in this file?    No

Order of continuous states:
   Row/Column Operating Point                     Rotating Frame? Derivative Order Description
   ---------- ---------------                     --------------- ---------------- -----------
          1    8.849E+00                                 F               2         ED Platform horizontal surge translation DOF (internal DOF index = DOF_Sg), m
          2   -3.689E-01                                 F               2         ED Platform horizontal sway translation DOF (internal DOF index = DOF_Sw), m
          3   -1.793E-01                                 F               2         ED Platform vertical heave translation DOF (internal DOF index = DOF_Hv), m
          4    4.756E-02                                 F               2         ED Platform roll tilt rotation DOF (internal DOF index = DOF_R), rad
          5    1.189E-01                                 F               2         ED Platform pitch tilt rotation DOF (internal DOF index = DOF_P), rad
          6    7.008E-03                                 F               2         ED Platform yaw rotation DOF (internal DOF index = DOF_Y), rad
          7    7.545E-01                                 F               2         ED 1st tower fore-aft bending mode DOF (internal DOF index = DOF_TFA1), m
          8    1.921E-01                                 F               2         ED 1st tower side-to-side bending mode DOF (internal DOF index = DOF_TSS1), m
          9    1.531E-03                                 F               2         ED 2nd tower fore-aft bending mode DOF (internal DOF index = DOF_TFA2), m
         10    8.393E-05                                 F               2         ED 2nd tower side-to-side bending mode DOF (internal DOF index = DOF_TSS2), m
         11    3.382E+00                                 F               2         ED Variable speed generator DOF (internal DOF index = DOF_GeAz), rad
         12   -3.591E-03                                 F               2         ED First time derivative of Platform horizontal surge translation DOF (internal DOF index = DOF_Sg), m/s
         13    2.078E-03                                 F               2         ED First time derivative of Platform horizontal sway translation DOF (internal DOF index = DOF_Sw), m/s
         14   -8.435E-04                                 F               2         ED First time derivative of Platform vertical heave translation DOF (internal DOF index = DOF_Hv), m/s
         15    3.801E-04                                 F               2         ED First time derivative of Platform roll tilt rotation DOF (internal DOF index = DOF_R), rad/s
         16   -1.323E-05                                 F               2         ED First time derivative of Platform pitch tilt rotation DOF (internal DOF index = DOF_P), rad/s
         17   -2.073E-05                                 F               2         ED First time derivative of Platform yaw rotation DOF (internal DOF index = DOF_Y), rad/s
         18   -2.947E-03                                 F               2         ED First time derivative of 1st tower fore-aft bending mode DOF (internal DOF index = DOF_TFA1), m/s
         19    3.882E-03                                 F               2         ED First time derivative of 1st tower side-to-side bending mode DOF (internal DOF index = DOF_TSS1), m/s
         20   -2.317E-06                                 F               2         ED First time derivative of 2nd tower fore-aft bending mode DOF (internal DOF index = DOF_TFA2), m/s
         21    1.931E-06                                 F               2         ED First time derivative of 2nd tower side-to-side bending mode DOF (internal DOF index = DOF_TSS2), m/s
         22    8.768E-01                                 F               2         ED First time derivative of Variable speed generator DOF (internal DOF index = DOF_GeAz), rad/s

Order of continuous state derivatives:
   Row/Column Operating Point                     Rotating Frame? Derivative Order Description
   ---------- ---------------                     --------------- ---------------- -----------
          1   -3.591E-03                                 F               2         First time derivative of ED Platform horizontal surge translation DOF (internal DOF index = DOF_Sg), m/s
          2    2.078E-03                                 F               2         First time derivative of ED Platform horizontal sway translation DOF (internal DOF index = DOF_Sw), m/s
          3   -8.435E-04                                 F               2         First time derivative of ED Platform vertical heave translation DOF (internal DOF index = DOF_Hv), m/s
          4    3.801E-04                                 F               2         First time derivative of ED Platform roll tilt rotation DOF (internal DOF index = DOF_R), rad/s
          5   -1.323E-05                                 F               2         First time derivative of ED Platform pitch tilt rotation DOF (internal DOF index = DOF_P), rad/s
          6   -2.073E-05                                 F               2         First time derivative of ED Platform yaw rotation DOF (internal DOF index = DOF_Y), rad/s
          7   -2.947E-03                                 F               2         First time derivative of ED 1st tower fore-aft bending mode DOF (internal DOF index = DOF_TFA1), m/s
          8    3.882E-03                                 F               2         First time derivative of ED 1st tower side-to-side bending mode DOF (internal DOF index = DOF_TSS1), m/s
          9   -2.317E-06                                 F               2         First time derivative of ED 2nd tower fore-aft bending mode DOF (internal DOF index = DOF_TFA2), m/s
         10    1.931E-06                                 F               2         First time derivative of ED 2nd tower side-to-side bending mode DOF (internal DOF index = DOF_TSS2), m/s
         11    8.768E-01                                 F               2         First time derivative of ED Variable speed generator DOF (internal DOF index = DOF_GeAz), rad/s
         12   -1.200E-04                                 F               2         First time derivative of ED First time derivative of Platform horizontal surge translation DOF (internal DOF index = DOF_Sg), m/s/s
         13   -4.367E-04                                 F               2         First time derivative of ED First time derivative of Platform horizontal sway translation DOF (internal DOF index = DOF_Sw), m/s/s
         14    1.254E-03                                 F               2         First time derivative of ED First time derivative of Platform vertical heave translation DOF (internal DOF index = DOF_Hv), m/s/s
         15   -9.693E-05                                 F               2         First time derivative of ED First time derivative of Platform roll tilt rotation DOF (internal DOF index = DOF_R), rad/s/s
         16    6.214E-06                                 F               2         First time derivative of ED First time derivative of Platform pitch tilt rotation DOF (internal DOF index = DOF_P), rad/s/s
         17    2.884E-05                                 F               2         First time derivative of ED First time derivative of Platform yaw rotation DOF (internal DOF index = DOF_Y), rad/s/s
         18   -2.838E-03                                 F               2         First time derivative of ED First time derivative of 1st tower fore-aft bending mode DOF (internal DOF index = DOF_TFA1), m/s/s
         19   -8.764E-03                                 F               2         First time derivative of ED First time derivative of 1st tower side-to-side bending mode DOF (internal DOF index = DOF_TSS1), m/s/s
         20   -9.765E-06                                 F               2         First time derivative of ED First time derivative of 2nd tower fore-aft bending mode DOF (internal DOF index = DOF_TFA2), m/s/s
         21    3.604E-06                                 F               2         First time derivative of ED First time derivative of 2nd tower side-to-side bending mode DOF (internal DOF index = DOF_TSS2), m/s/s
         22    1.485E-04                                 F               2         First time derivative of ED First time derivative of Variable speed generator DOF (internal DOF index = DOF_GeAz), rad/s/s

Order of inputs:
     Column   Operating Point                     Rotating Frame? Derivative Order Description
   ---------- ---------------                     --------------- ---------------- -----------
          1   -1.080E+01                                 F               0         IfW X-component position of node 1 (hub), m
          2    0.000E+00                                 F               0         IfW Y-component position of node 1 (hub), m
          3    1.497E+02                                 F               0         IfW Z-component position of node 1 (hub), m
          4    1.692E+01                                 F               0         IfW X-component position of node 2 (blade 1, node 1), m
          5   -2.372E+00                                 F               0         IfW Y-component position of node 2 (blade 1, node 1), m
          6    1.512E+02                                 F               0         IfW Z-component position of node 2 (blade 1, node 1), m
          7    1.699E+01                                 F               0         IfW X-component position of node 3 (blade 1, node 2), m
          8   -1.092E+00                                 F               0         IfW Y-component position of node 3 (blade 1, node 2), m
          9    1.515E+02                                 F               0         IfW Z-component position of node 3 (blade 1, node 2), m
         10    1.792E+01                                 F               0         IfW X-component position of node 4 (blade 1, node 3), m
         11    1.631E+01                                 F               0         IfW Y-component position of node 4 (blade 1, node 3), m
         12    1.566E+02                                 F               0         IfW Z-component position of node 4 (blade 1, node 3), m
         13    1.811E+01                                 F               0         IfW X-component position of node 5 (blade 1, node 4), m
         14    2.002E+01                                 F               0         IfW Y-component position of node 5 (blade 1, node 4), m
         15    1.577E+02                                 F               0         IfW Z-component position of node 5 (blade 1, node 4), m
         16    1.831E+01                                 F               0         IfW X-component position of node 6 (blade 1, node 5), m
         17    2.373E+01                                 F               0         IfW Y-component position of node 6 (blade 1, node 5), m
         18    1.588E+02                                 F               0         IfW Z-component position of node 6 (blade 1, node 5), m
         19    1.851E+01                                 F               0         IfW X-component position of node 7 (blade 1, node 6), m
         20    2.743E+01                                 F               0         IfW Y-component position of node 7 (blade 1, node 6), m
         21    1.599E+02                                 F               0         IfW Z-component position of node 7 (blade 1, node 6), m
         22    1.870E+01                                 F               0         IfW X-component position of node 8 (blade 1, node 7), m
         23    3.114E+01                                 F               0         IfW Y-component position of node 8 (blade 1, node 7), m
         24    1.609E+02                                 F               0         IfW Z-component position of node 8 (blade 1, node 7), m
         25    1.890E+01                                 F               0         IfW X-component position of node 9 (blade 1, node 8), m
         26    3.485E+01                                 F               0         IfW Y-component position of node 9 (blade 1, node 8), m
         27    1.620E+02                                 F               0         IfW Z-component position of node 9 (blade 1, node 8), m
         28    1.910E+01                                 F               0         IfW X-component position of node 10 (blade 1, node 9), m
         29    3.856E+01                                 F               0         IfW Y-component position of node 10 (blade 1, node 9), m
         30    1.631E+02                                 F               0         IfW Z-component position of node 10 (blade 1, node 9), m
         31    1.930E+01                                 F               0         IfW X-component position of node 11 (blade 1, node 10), m
         32    4.227E+01                                 F               0         IfW Y-component position of node 11 (blade 1, node 10), m
         33    1.642E+02                                 F               0         IfW Z-component position of node 11 (blade 1, node 10), m
         34    1.949E+01                                 F               0         IfW X-component position of node 12 (blade 1, node 11), m
         35    4.597E+01                                 F               0         IfW Y-component position of node 12 (blade 1, node 11), m
         36    1.653E+02                                 F               0         IfW Z-component position of node 12 (blade 1, node 11), m
         37    1.969E+01                                 F               0         IfW X-component position of node 13 (blade 1, node 12), m
         38    4.968E+01                                 F               0         IfW Y-component position of node 13 (blade 1, node 12), m
         39    1.664E+02                                 F               0         IfW Z-component position of node 13 (blade 1, node 12), m
         40    1.989E+01                                 F               0         IfW X-component position of node 14 (blade 1, node 13), m
         41    5.339E+01                                 F               0         IfW Y-component position of node 14 (blade 1, node 13), m
         42    1.674E+02                                 F               0         IfW Z-component position of node 14 (blade 1, node 13), m
         43    2.008E+01                                 F               0         IfW X-component position of node 15 (blade 1, node 14), m
         44    5.710E+01                                 F               0         IfW Y-component position of node 15 (blade 1, node 14), m
         45    1.685E+02                                 F               0         IfW Z-component position of node 15 (blade 1, node 14), m
         46    2.028E+01                                 F               0         IfW X-component position of node 16 (blade 1, node 15), m
         47    6.081E+01                                 F               0         IfW Y-component position of node 16 (blade 1, node 15), m
         48    1.696E+02                                 F               0         IfW Z-component position of node 16 (blade 1, node 15), m
         49    2.048E+01                                 F               0         IfW X-component position of node 17 (blade 1, node 16), m
         50    6.451E+01                                 F               0         IfW Y-component position of node 17 (blade 1, node 16), m
         51    1.707E+02                                 F               0         IfW Z-component position of node 17 (blade 1, node 16), m
         52    2.067E+01                                 F               0         IfW X-component position of node 18 (blade 1, node 17), m
         53    6.822E+01                                 F               0         IfW Y-component position of node 18 (blade 1, node 17), m
         54    1.718E+02                                 F               0         IfW Z-component position of node 18 (blade 1, node 17), m
         55    2.087E+01                                 F               0         IfW X-component position of node 19 (blade 1, node 18), m
         56    7.193E+01                                 F               0         IfW Y-component position of node 19 (blade 1, node 18), m
         57    1.728E+02                                 F               0         IfW Z-component position of node 19 (blade 1, node 18), m
         58    2.107E+01                                 F               0         IfW X-component position of node 20 (blade 1, node 19), m
         59    7.564E+01                                 F               0         IfW Y-component position of node 20 (blade 1, node 19), m
         60    1.739E+02                                 F               0         IfW Z-component position of node 20 (blade 1, node 19), m
         61    2.127E+01                                 F               0         IfW X-component position of node 21 (blade 1, node 20), m
         62    7.934E+01                                 F               0         IfW Y-component position of node 21 (blade 1, node 20), m
         63    1.750E+02                                 F               0         IfW Z-component position of node 21 (blade 1, node 20), m
         64    2.146E+01                                 F               0         IfW X-component position of node 22 (blade 1, node 21), m
         65    8.305E+01                                 F               0         IfW Y-component position of node 22 (blade 1, node 21), m
         66    1.761E+02                                 F               0         IfW Z-component position of node 22 (blade 1, node 21), m
         67    2.166E+01                                 F               0         IfW X-component position of node 23 (blade 1, node 22), m
         68    8.676E+01                                 F               0         IfW Y-component position of node 23 (blade 1, node 22), m
         69    1.772E+02                                 F               0         IfW Z-component position of node 23 (blade 1, node 22), m
         70    2.186E+01                                 F               0         IfW X-component position of node 24 (blade 1, node 23), m
         71    9.047E+01                                 F               0         IfW Y-component position of node 24 (blade 1, node 23), m
         72    1.783E+02                                 F               0         IfW Z-component position of node 24 (blade 1, node 23), m
         73    2.205E+01                                 F               0         IfW X-component position of node 25 (blade 1, node 24), m
         74    9.418E+01                                 F               0         IfW Y-component position of node 25 (blade 1, node 24), m
         75    1.793E+02                                 F               0         IfW Z-component position of node 25 (blade 1, node 24), m
         76    2.225E+01                                 F               0         IfW X-component position of node 26 (blade 1, node 25), m
         77    9.788E+01                                 F               0         IfW Y-component position of node 26 (blade 1, node 25), m
         78    1.804E+02                                 F               0         IfW Z-component position of node 26 (blade 1, node 25), m
         79    2.245E+01                                 F               0         IfW X-component position of node 27 (blade 1, node 26), m
         80    1.016E+02                                 F               0         IfW Y-component position of node 27 (blade 1, node 26), m
         81    1.815E+02                                 F               0         IfW Z-component position of node 27 (blade 1, node 26), m
         82    2.265E+01                                 F               0         IfW X-component position of node 28 (blade 1, node 27), m
         83    1.053E+02                                 F               0         IfW Y-component position of node 28 (blade 1, node 27), m
         84    1.826E+02                                 F               0         IfW Z-component position of node 28 (blade 1, node 27), m
         85    2.281E+01                                 F               0         IfW X-component position of node 29 (blade 1, node 28), m
         86    1.084E+02                                 F               0         IfW Y-component position of node 29 (blade 1, node 28), m
         87    1.835E+02                                 F               0         IfW Z-component position of node 29 (blade 1, node 28), m
         88    1.757E+01                                 F               0         IfW X-component position of node 30 (blade 2, node 1), m
         89   -1.170E+01                                 F               0         IfW Y-component position of node 30 (blade 2, node 1), m
         90    1.533E+02                                 F               0         IfW Z-component position of node 30 (blade 2, node 1), m
         91    1.780E+01                                 F               0         IfW X-component position of node 31 (blade 2, node 2), m
         92   -1.267E+01                                 F               0         IfW Y-component position of node 31 (blade 2, node 2), m
         93    1.542E+02                                 F               0         IfW Z-component position of node 31 (blade 2, node 2), m
         94    2.086E+01                                 F               0         IfW X-component position of node 32 (blade 2, node 3), m
         95   -2.584E+01                                 F               0         IfW Y-component position of node 32 (blade 2, node 3), m
         96    1.663E+02                                 F               0         IfW Z-component position of node 32 (blade 2, node 3), m
         97    2.151E+01                                 F               0         IfW X-component position of node 33 (blade 2, node 4), m
         98   -2.864E+01                                 F               0         IfW Y-component position of node 33 (blade 2, node 4), m
         99    1.689E+02                                 F               0         IfW Z-component position of node 33 (blade 2, node 4), m
        100    2.217E+01                                 F               0         IfW X-component position of node 34 (blade 2, node 5), m
        101   -3.145E+01                                 F               0         IfW Y-component position of node 34 (blade 2, node 5), m
        102    1.715E+02                                 F               0         IfW Z-component position of node 34 (blade 2, node 5), m
        103    2.282E+01                                 F               0         IfW X-component position of node 35 (blade 2, node 6), m
        104   -3.425E+01                                 F               0         IfW Y-component position of node 35 (blade 2, node 6), m
        105    1.741E+02                                 F               0         IfW Z-component position of node 35 (blade 2, node 6), m
        106    2.347E+01                                 F               0         IfW X-component position of node 36 (blade 2, node 7), m
        107   -3.706E+01                                 F               0         IfW Y-component position of node 36 (blade 2, node 7), m
        108    1.766E+02                                 F               0         IfW Z-component position of node 36 (blade 2, node 7), m
        109    2.412E+01                                 F               0         IfW X-component position of node 37 (blade 2, node 8), m
        110   -3.986E+01                                 F               0         IfW Y-component position of node 37 (blade 2, node 8), m
        111    1.792E+02                                 F               0         IfW Z-component position of node 37 (blade 2, node 8), m
        112    2.478E+01                                 F               0         IfW X-component position of node 38 (blade 2, node 9), m
        113   -4.267E+01                                 F               0         IfW Y-component position of node 38 (blade 2, node 9), m
        114    1.818E+02                                 F               0         IfW Z-component position of node 38 (blade 2, node 9), m
        115    2.543E+01                                 F               0         IfW X-component position of node 39 (blade 2, node 10), m
        116   -4.547E+01                                 F               0         IfW Y-component position of node 39 (blade 2, node 10), m
        117    1.844E+02                                 F               0         IfW Z-component position of node 39 (blade 2, node 10), m
        118    2.608E+01                                 F               0         IfW X-component position of node 40 (blade 2, node 11), m
        119   -4.828E+01                                 F               0         IfW Y-component position of node 40 (blade 2, node 11), m
        120    1.870E+02                                 F               0         IfW Z-component position of node 40 (blade 2, node 11), m
        121    2.673E+01                                 F               0         IfW X-component position of node 41 (blade 2, node 12), m
        122   -5.109E+01                                 F               0         IfW Y-component position of node 41 (blade 2, node 12), m
        123    1.895E+02                                 F               0         IfW Z-component position of node 41 (blade 2, node 12), m
        124    2.738E+01                                 F               0         IfW X-component position of node 42 (blade 2, node 13), m
        125   -5.389E+01                                 F               0         IfW Y-component position of node 42 (blade 2, node 13), m
        126    1.921E+02                                 F               0         IfW Z-component position of node 42 (blade 2, node 13), m
        127    2.804E+01                                 F               0         IfW X-component position of node 43 (blade 2, node 14), m
        128   -5.670E+01                                 F               0         IfW Y-component position of node 43 (blade 2, node 14), m
        129    1.947E+02                                 F               0         IfW Z-component position of node 43 (blade 2, node 14), m
        130    2.869E+01                                 F               0         IfW X-component position of node 44 (blade 2, node 15), m
        131   -5.950E+01                                 F               0         IfW Y-component position of node 44 (blade 2, node 15), m
        132    1.973E+02                                 F               0         IfW Z-component position of node 44 (blade 2, node 15), m
        133    2.934E+01                                 F               0         IfW X-component position of node 45 (blade 2, node 16), m
        134   -6.231E+01                                 F               0         IfW Y-component position of node 45 (blade 2, node 16), m
        135    1.999E+02                                 F               0         IfW Z-component position of node 45 (blade 2, node 16), m
        136    2.999E+01                                 F               0         IfW X-component position of node 46 (blade 2, node 17), m
        137   -6.511E+01                                 F               0         IfW Y-component position of node 46 (blade 2, node 17), m
        138    2.024E+02                                 F               0         IfW Z-component position of node 46 (blade 2, node 17), m
        139    3.065E+01                                 F               0         IfW X-component position of node 47 (blade 2, node 18), m
        140   -6.792E+01                                 F               0         IfW Y-component position of node 47 (blade 2, node 18), m
        141    2.050E+02                                 F               0         IfW Z-component position of node 47 (blade 2, node 18), m
        142    3.130E+01                                 F               0         IfW X-component position of node 48 (blade 2, node 19), m
        143   -7.072E+01                                 F               0         IfW Y-component position of node 48 (blade 2, node 19), m
        144    2.076E+02                                 F               0         IfW Z-component position of node 48 (blade 2, node 19), m