
Linearized model: Predictions were generated on 13-Feb-2024 at 12:12:09 using OpenFAST, compiled as a 64-bit application using single precision at commit v3.5.1
 linked with  NWTC Subroutine Library; ElastoDyn; InflowWind; AeroDyn; ServoDyn; HydroDyn; MAP++ (<1.20.10>, <Oct-20-2023>)

Description from the FAST input file: CCT-9 Campign 4 model. Input files to be run with OpenFAST 3.5.0. GitHub branch from Lu Wang (https://github.com/luwang00/openfast/tree/dev) compiled on March 7, 2023.

Simulation information:
   Simulation time:                   770.9000 s
   Rotor Speed:                         0.7918 rad/s
   Azimuth:                             0.3678 rad
   Wind Speed:                         24.0000 m/s
   Number of continuous states:         0
   Number of discrete states:           0
   Number of constraint states:         0
   Number of inputs:                 1746
   Number of outputs:                   4
   Jacobians included in this file?    No

Order of inputs:
     Column   Operating Point                                                   Rotating Frame? Derivative Order Description
   ---------- ---------------                                                   --------------- ---------------- -----------
          1     8.55357933044E+000                                                     F               0         Tower X translation displacement, node 1, m
          2    -1.82734704018E+000                                                     F               0         Tower Y translation displacement, node 1, m
          3    -2.15883895755E-001                                                     F               0         Tower Z translation displacement, node 1, m
          4     9.72628593445E+000                                                     F               0         Tower X translation displacement, node 2, m
          5    -2.50367164612E+000                                                     F               0         Tower Y translation displacement, node 2, m
          6    -2.90277838707E-001                                                     F               0         Tower Z translation displacement, node 2, m
          7     1.09179897308E+001                                                     F               0         Tower X translation displacement, node 3, m
          8    -3.18781399727E+000                                                     F               0         Tower Y translation displacement, node 3, m
          9    -3.66929650307E-001                                                     F               0         Tower Z translation displacement, node 3, m
         10     1.21239633560E+001                                                     F               0         Tower X translation displacement, node 4, m
         11    -3.87838959694E+000                                                     F               0         Tower Y translation displacement, node 4, m
         12    -4.45334911346E-001                                                     F               0         Tower Z translation displacement, node 4, m
         13     1.33415832520E+001                                                     F               0         Tower X translation displacement, node 5, m
         14    -4.57478046417E+000                                                     F               0         Tower Y translation displacement, node 5, m
         15    -5.25215327740E-001                                                     F               0         Tower Z translation displacement, node 5, m
         16     1.45683956146E+001                                                     F               0         Tower X translation displacement, node 6, m
         17    -5.27633094788E+000                                                     F               0         Tower Y translation displacement, node 6, m
         18    -6.06315612793E-001                                                     F               0         Tower Z translation displacement, node 6, m
         19     1.58017358780E+001                                                     F               0         Tower X translation displacement, node 7, m
         20    -5.98202514648E+000                                                     F               0         Tower Y translation displacement, node 7, m
         21    -6.88293337822E-001                                                     F               0         Tower Z translation displacement, node 7, m
         22     1.70403537750E+001                                                     F               0         Tower X translation displacement, node 8, m
         23    -6.69153356552E+000                                                     F               0         Tower Y translation displacement, node 8, m
         24    -7.71034777164E-001                                                     F               0         Tower Z translation displacement, node 8, m
         25     1.82825775146E+001                                                     F               0         Tower X translation displacement, node 9, m
         26    -7.40406703949E+000                                                     F               0         Tower Y translation displacement, node 9, m
         27    -8.54306578636E-001                                                     F               0         Tower Z translation displacement, node 9, m
         28     1.95270309448E+001                                                     F               0         Tower X translation displacement, node 10, m
         29    -8.11878871918E+000                                                     F               0         Tower Y translation displacement, node 10, m
         30    -9.37937736511E-001                                                     F               0         Tower Z translation displacement, node 10, m
         31     2.07726078033E+001                                                     F               0         Tower X translation displacement, node 11, m
         32    -8.83487987518E+000                                                     F               0         Tower Y translation displacement, node 11, m
         33    -1.02175962925E+000                                                     F               0         Tower Z translation displacement, node 11, m
         34     9.95473563671E-001,  -6.69336598366E-003,  -9.48031172156E-002         F               0         Tower X orientation angle, node 1, rad
         35     1.18202203885E-002,   9.98491406441E-001,   5.36211021245E-002         F               0         Tower Y orientation angle, node 1, rad
         36     9.43011939526E-002,  -5.44989816844E-002,   9.94050860405E-001         F               0         Tower Z orientation angle, node 1, rad
         37     9.95334267616E-001,  -6.61307014525E-003,  -9.62597578764E-002         F               0         Tower X orientation angle, node 2, rad
         38     1.18749262765E-002,   9.98459875584E-001,   5.41933216155E-002         F               0         Tower Y orientation angle, node 2, rad
         39     9.57531183958E-002,  -5.50835467875E-002,   9.93879854679E-001         F               0         Tower Z orientation angle, node 2, rad
         40     9.95211541653E-001,  -6.54255319387E-003,  -9.75253283978E-002         F               0         Tower X orientation angle, node 3, rad
         41     1.19264293462E-002,   9.98430252075E-001,   5.47246299684E-002         F               0         Tower Y orientation angle, node 3, rad
         42     9.70141962171E-002,  -5.56257106364E-002,   9.93727326393E-001         F               0         Tower Z orientation angle, node 3, rad
         43     9.95107948780E-001,  -6.48314645514E-003,  -9.85804274678E-002         F               0         Tower X orientation angle, node 4, rad
         44     1.19739715010E-002,   9.98402953148E-001,   5.52097558975E-002         F               0         Tower Y orientation angle, node 4, rad
         45     9.80650633574E-002,  -5.61200641096E-002,   9.93596374989E-001         F               0         Tower Z orientation angle, node 4, rad
         46     9.95023310184E-001,  -6.43456680700E-003,  -9.94344577193E-002         F               0         Tower X orientation angle, node 5, rad
         47     1.20171410963E-002,   9.98378217220E-001,   5.56467473507E-002         F               0         Tower Y orientation angle, node 5, rad
         48     9.89151299000E-002,  -5.65647296607E-002,   9.93486881256E-001         F               0         Tower Z orientation angle, node 5, rad
         49     9.94956552982E-001,  -6.39618048444E-003,  -1.00102454424E-001         F               0         Tower X orientation angle, node 6, rad
         50     1.20554622263E-002,   9.98356163502E-001,   5.60325421393E-002         F               0         Tower Y orientation angle, node 6, rad
         51     9.95795056224E-002,  -5.69567270577E-002,   9.93398129940E-001         F               0         Tower Z orientation angle, node 6, rad
         52     9.94907438755E-001,  -6.36777514592E-003,  -1.00591599941E-001         F               0         Tower X orientation angle, node 7, rad
         53     1.20879365131E-002,   9.98337447643E-001,   5.63584826887E-002         F               0         Tower Y orientation angle, node 7, rad
         54     1.00065477192E-001,  -5.72874173522E-002,   9.93330299854E-001         F               0         Tower Z orientation angle, node 7, rad
         55     9.94872331619E-001,  -6.34736614302E-003,  -1.00939460099E-001         F               0         Tower X orientation angle, node 8, rad
         56     1.21145229787E-002,   9.98322010040E-001,   5.66249154508E-002         F               0         Tower Y orientation angle, node 8, rad
         57     1.00410662591E-001,  -5.75573928654E-002,   9.93279814720E-001         F               0         Tower Z orientation angle, node 8, rad
         58     9.94849085808E-001,  -6.33375020698E-003,  -1.01169146597E-001         F               0         Tower X orientation angle, node 9, rad
         59     1.21348146349E-002,   9.98310208321E-001,   5.68282082677E-002         F               0         Tower Y orientation angle, node 9, rad
         60     1.00638255477E-001,  -5.77631592751E-002,   9.93244886398E-001         F               0         Tower Z orientation angle, node 9, rad
         61     9.94835495949E-001,  -6.32572453469E-003,  -1.01303108037E-001         F               0         Tower X orientation angle, node 10, rad
         62     1.21485060081E-002,   9.98302221298E-001,   5.69654814899E-002         F               0         Tower Y orientation angle, node 10, rad
         63     1.00770771503E-001,  -5.79019673169E-002,   9.93223369122E-001         F               0         Tower Z orientation angle, node 10, rad
         64     9.94828939438E-001,  -6.32181251422E-003,  -1.01367704570E-001         F               0         Tower X orientation angle, node 11, rad
         65     1.21561456472E-002,   9.98297750950E-001,   5.70421665907E-002         F               0         Tower Y orientation angle, node 11, rad
         66     1.00834548473E-001,  -5.79794384539E-002,   9.93212342262E-001         F               0         Tower Z orientation angle, node 11, rad
         67    -2.74591776542E-003                                                     F               0         Tower X translation velocity, node 1, m/s
         68    -3.81108373404E-003                                                     F               0         Tower Y translation velocity, node 1, m/s
         69     2.21084384248E-003                                                     F               0         Tower Z translation velocity, node 1, m/s
         70    -3.10485856608E-003                                                     F               0         Tower X translation velocity, node 2, m/s
         71    -5.06152352318E-003                                                     F               0         Tower Y translation velocity, node 2, m/s
         72     2.17627733946E-003                                                     F               0         Tower Z translation velocity, node 2, m/s
         73    -3.36353550665E-003                                                     F               0         Tower X translation velocity, node 3, m/s
         74    -5.73576614261E-003                                                     F               0         Tower Y translation velocity, node 3, m/s
         75     2.16381647624E-003                                                     F               0         Tower Z translation velocity, node 3, m/s
         76    -3.52971092798E-003                                                     F               0         Tower X translation velocity, node 4, m/s
         77    -5.94494538382E-003                                                     F               0         Tower Y translation velocity, node 4, m/s
         78     2.16837483458E-003                                                     F               0         Tower Z translation velocity, node 4, m/s
         79    -3.60307842493E-003                                                     F               0         Tower X translation velocity, node 5, m/s
         80    -5.74214244261E-003                                                     F               0         Tower Y translation velocity, node 5, m/s
         81     2.18715961091E-003                                                     F               0         Tower Z translation velocity, node 5, m/s
         82    -3.58560308814E-003                                                     F               0         Tower X translation velocity, node 6, m/s
         83    -5.18124457449E-003                                                     F               0         Tower Y translation velocity, node 6, m/s
         84     2.21747509204E-003                                                     F               0         Tower Z translation velocity, node 6, m/s
         85    -3.48880817182E-003                                                     F               0         Tower X translation velocity, node 7, m/s
         86    -4.33857552707E-003                                                     F               0         Tower Y translation velocity, node 7, m/s
         87     2.25619948469E-003                                                     F               0         Tower Z translation velocity, node 7, m/s
         88    -3.31330625340E-003                                                     F               0         Tower X translation velocity, node 8, m/s
         89    -3.24106006883E-003                                                     F               0         Tower Y translation velocity, node 8, m/s
         90     2.30192998424E-003                                                     F               0         Tower Z translation velocity, node 8, m/s
         91    -3.07072210126E-003                                                     F               0         Tower X translation velocity, node 9, m/s
         92    -1.94518640637E-003                                                     F               0         Tower Y translation velocity, node 9, m/s
         93     2.35260464251E-003                                                     F               0         Tower Z translation velocity, node 9, m/s
         94    -2.77616991661E-003                                                     F               0         Tower X translation velocity, node 10, m/s
         95    -5.07833785377E-004                                                     F               0         Tower Y translation velocity, node 10, m/s
         96     2.40643485449E-003                                                     F               0         Tower Z translation velocity, node 10, m/s
         97    -2.44679744355E-003                                                     F               0         Tower X translation velocity, node 11, m/s
         98     1.01730611641E-003                                                     F               0         Tower Y translation velocity, node 11, m/s
         99     2.46197055094E-003                                                     F               0         Tower Z translation velocity, node 11, m/s
        100     2.16200275421E+001                                                     F               0         Hub X translation displacement, node 1, m
        101    -9.22175025940E+000                                                     F               0         Hub Y translation displacement, node 1, m
        102     1.97840780020E-002                                                     F               0         Hub Z translation displacement, node 1, m
        103     9.78839099407E-001,  -2.26679243497E-004,  -2.04631373286E-001         F               0         Hub X orientation angle, node 1, rad
        104     8.47934409976E-002,   9.10556614399E-001,   4.04594510794E-001         F               0         Hub Y orientation angle, node 1, rad
        105     1.86236739159E-001,  -4.13384318352E-001,   8.91307651997E-001         F               0         Hub Z orientation angle, node 1, rad
        106     7.74924516678E-001                                                     F               0         Hub X rotation velocity, node 1, rad/s
        107    -1.52799359057E-004                                                     F               0         Hub Y rotation velocity, node 1, rad/s
        108    -1.62014946342E-001                                                     F               0         Hub Z rotation velocity, node 1, rad/s
        109     9.11966681480E-001,  -2.64799088240E-001,  -3.13365966082E-001         F               0         Blade root 1 X orientation angle, node 1, rad
        110     3.65558028221E-001,   8.71203124523E-001,   3.27677398920E-001         F               0         Blade root 1 Y orientation angle, node 1, rad
        111     1.86236739159E-001,  -4.13384318352E-001,   8.91307651997E-001         F               0         Blade root 1 Z orientation angle, node 1, rad
        112     9.02059435844E-001,   2.36099332571E-001,  -3.61311316490E-001         F               0         Blade root 2 X orientation angle, node 1, rad
        113     3.98182511330E-001,  -7.78255045414E-001,   4.85561311245E-001         F               0         Blade root 2 Y orientation angle, node 1, rad
        114    -1.66551634669E-001,  -5.81872999668E-001,  -7.96042919159E-001         F               0         Blade root 2 Z orientation angle, node 1, rad
        115     9.95789647102E-001,   2.80490648001E-002,   8.72707739472E-002         F               0         Blade root 3 X orientation angle, node 1, rad
        116     8.95289629698E-002,  -9.31456610560E-002,  -9.91619110107E-001         F               0         Blade root 3 Y orientation angle, node 1, rad
        117    -1.96850951761E-002,   9.95257318020E-001,  -9.52646955848E-002         F               0         Blade root 3 Z orientation angle, node 1, rad
        118     2.20726909637E+001                                                     F               0         Blade 1 X translation displacement, node 1, m
        119    -1.15118989944E+001                                                     F               0         Blade 1 Y translation displacement, node 1, m
        120    -5.52030503750E-001                                                     F               0         Blade 1 Z translation displacement, node 1, m
        121     2.21817626953E+001                                                     F               0         Blade 1 X translation displacement, node 2, m
        122    -1.20637283325E+001                                                     F               0         Blade 1 Y translation displacement, node 2, m
        123    -6.89809441566E-001                                                     F               0         Blade 1 Z translation displacement, node 2, m
        124     2.36649646759E+001                                                     F               0         Blade 1 X translation displacement, node 3, m
        125    -1.95676479340E+001                                                     F               0         Blade 1 Y translation displacement, node 3, m
        126    -2.56339406967E+000                                                     F               0         Blade 1 Z translation displacement, node 3, m
        127     2.39809703827E+001                                                     F               0         Blade 1 X translation displacement, node 4, m
        128    -2.11664028168E+001                                                     F               0         Blade 1 Y translation displacement, node 4, m
        129    -2.96258068085E+000                                                     F               0         Blade 1 Z translation displacement, node 4, m
        130     2.42970352173E+001                                                     F               0         Blade 1 X translation displacement, node 5, m
        131    -2.27654609680E+001                                                     F               0         Blade 1 Y translation displacement, node 5, m
        132    -3.36182737350E+000                                                     F               0         Blade 1 Z translation displacement, node 5, m
        133     2.46130409241E+001                                                     F               0         Blade 1 X translation displacement, node 6, m
        134    -2.43642234802E+001                                                     F               0         Blade 1 Y translation displacement, node 6, m
        135    -3.76101541519E+000                                                     F               0         Blade 1 Z translation displacement, node 6, m
        136     2.49290485382E+001                                                     F               0         Blade 1 X translation displacement, node 7, m
        137    -2.59629898071E+001                                                     F               0         Blade 1 Y translation displacement, node 7, m
        138    -4.16019105911E+000                                                     F               0         Blade 1 Z translation displacement, node 7, m
        139     2.52451114655E+001                                                     F               0         Blade 1 X translation displacement, node 8, m
        140    -2.75620422363E+001                                                     F               0         Blade 1 Y translation displacement, node 8, m
        141    -4.55945158005E+000                                                     F               0         Blade 1 Z translation displacement, node 8, m
        142     2.55611190796E+001                                                     F               0         Blade 1 X translation displacement, node 9, m
        143    -2.91608085632E+001                                                     F               0         Blade 1 Y translation displacement, node 9, m
        144    -4.95862579346E+000                                                     F               0         Blade 1 Z translation displacement, node 9, m
        145     2.58771266937E+001                                                     F               0         Blade 1 X translation displacement, node 10, m
        146    -3.07595691681E+001                                                     F               0         Blade 1 Y translation displacement, node 10, m
        147    -5.35781383514E+000                                                     F               0         Blade 1 Z translation displacement, node 10, m
        148     2.61931324005E+001                                                     F               0         Blade 1 X translation displacement, node 11, m
        149    -3.23583374023E+001                                                     F               0         Blade 1 Y translation displacement, node 11, m
        150    -5.75698757172E+000                                                     F               0         Blade 1 Z translation displacement, node 11, m
        151     2.65091953278E+001                                                     F               0         Blade 1 X translation displacement, node 12, m
        152    -3.39573822021E+001                                                     F               0         Blade 1 Y translation displacement, node 12, m
        153    -6.15624761581E+000                                                     F               0         Blade 1 Z translation displacement, node 12, m
        154     2.68252029419E+001                                                     F               0         Blade 1 X translation displacement, node 13, m
        155    -3.55561485291E+001                                                     F               0         Blade 1 Y translation displacement, node 13, m
        156    -6.55542135239E+000                                                     F               0         Blade 1 Z translation displacement, node 13, m
        157     2.71412086487E+001                                                     F               0         Blade 1 X translation displacement, node 14, m
        158    -3.71549110413E+001                                                     F               0         Blade 1 Y translation displacement, node 14, m
        159    -6.95460939407E+000                                                     F               0         Blade 1 Z translation displacement, node 14, m
        160     2.74572734833E+001                                                     F               0         Blade 1 X translation displacement, node 15, m
        161    -3.87539672852E+001                                                     F               0         Blade 1 Y translation displacement, node 15, m
        162    -7.35386037827E+000                                                     F               0         Blade 1 Z translation displacement, node 15, m
        163     2.77732810974E+001                                                     F               0         Blade 1 X translation displacement, node 16, m
        164    -4.03527297974E+001                                                     F               0         Blade 1 Y translation displacement, node 16, m
        165    -7.75304651260E+000                                                     F               0         Blade 1 Z translation displacement, node 16, m
        166     2.80892887115E+001                                                     F               0         Blade 1 X translation displacement, node 17, m
        167    -4.19514999390E+001                                                     F               0         Blade 1 Y translation displacement, node 17, m
        168    -8.15221786499E+000                                                     F               0         Blade 1 Z translation displacement, node 17, m
        169     2.84052944183E+001                                                     F               0         Blade 1 X translation displacement, node 18, m
        170    -4.35502586365E+001                                                     F               0         Blade 1 Y translation displacement, node 18, m
        171    -8.55140399933E+000                                                     F               0         Blade 1 Z translation displacement, node 18, m
        172     2.87213573456E+001                                                     F               0         Blade 1 X translation displacement, node 19, m
        173    -4.51493072510E+001                                                     F               0         Blade 1 Y translation displacement, node 19, m
        174    -8.95066070557E+000                                                     F               0         Blade 1 Z translation displacement, node 19, m
        175     2.90373630524E+001                                                     F               0         Blade 1 X translation displacement, node 20, m
        176    -4.67480735779E+001                                                     F               0         Blade 1 Y translation displacement, node 20, m
        177    -9.34983158112E+000                                                     F               0         Blade 1 Z translation displacement, node 20, m
        178     2.93533725739E+001                                                     F               0         Blade 1 X translation displacement, node 21, m
        179    -4.83468399048E+001                                                     F               0         Blade 1 Y translation displacement, node 21, m
        180    -9.74901866913E+000                                                     F               0         Blade 1 Z translation displacement, node 21, m
        181     2.96694355011E+001                                                     F               0         Blade 1 X translation displacement, node 22, m
        182    -4.99458885193E+001                                                     F               0         Blade 1 Y translation displacement, node 22, m
        183    -1.01482763290E+001                                                     F               0         Blade 1 Z translation displacement, node 22, m