
Linearized model: Predictions were generated on 13-Feb-2024 at 12:12:09 using OpenFAST, compiled as a 64-bit application using single precision at commit v3.5.1
 linked with  NWTC Subroutine Library; ElastoDyn; InflowWind; AeroDyn; ServoDyn; HydroDyn; MAP++ (<1.20.10>, <Oct-20-2023>)

Description from the FAST input file: CCT-9 Campign 4 model. Input files to be run with OpenFAST 3.5.0. GitHub branch from Lu Wang (https://github.com/luwang00/openfast/tree/dev) compiled on March 7, 2023.

Simulation information:
   Simulation time:                   771.1000 s
   Rotor Speed:                         0.7920 rad/s
   Azimuth:                             0.5262 rad
   Wind Speed:                         24.0000 m/s
   Number of continuous states:        22
   Number of discrete states:           0
   Number of constraint states:         0
   Number of inputs:                 1890
   Number of outputs:                  25
   Jacobians included in this file?    No

Order of continuous states:
   Row/Column Operating Point                                                   Rotating Frame? Derivative Order Description
   ---------- ---------------                                                   --------------- ---------------- -----------
          1     6.82387876511E+000                                                     F               2         Platform horizontal surge translation DOF (internal DOF index = DOF_Sg), m
          2    -8.28168690205E-001                                                     F               2         Platform horizontal sway translation DOF (internal DOF index = DOF_Sw), m
          3    -1.06359653175E-001                                                     F               2         Platform vertical heave translation DOF (internal DOF index = DOF_Hv), m
          4     5.44104352593E-002                                                     F               2         Platform roll tilt rotation DOF (internal DOF index = DOF_R), rad
          5     9.51279252768E-002                                                     F               2         Platform pitch tilt rotation DOF (internal DOF index = DOF_P), rad
          6    -9.31425578892E-003                                                     F               2         Platform yaw rotation DOF (internal DOF index = DOF_Y), rad
          7     5.70670187473E-001                                                     F               2         1st tower fore-aft bending mode DOF (internal DOF index = DOF_TFA1), m
          8     2.66982942820E-001                                                     F               2         1st tower side-to-side bending mode DOF (internal DOF index = DOF_TSS1), m
          9     1.47048057988E-003                                                     F               2         2nd tower fore-aft bending mode DOF (internal DOF index = DOF_TFA2), m
         10    -2.96500074910E-004                                                     F               2         2nd tower side-to-side bending mode DOF (internal DOF index = DOF_TSS2), m
         11     5.23857641220E+000                                                     F               2         Variable speed generator DOF (internal DOF index = DOF_GeAz), rad
         12    -7.19912204659E-005                                                     F               2         First time derivative of Platform horizontal surge translation DOF (internal DOF index = DOF_Sg), m/s
         13    -1.64239481091E-003                                                     F               2         First time derivative of Platform horizontal sway translation DOF (internal DOF index = DOF_Sw), m/s
         14     1.90558528993E-003                                                     F               2         First time derivative of Platform vertical heave translation DOF (internal DOF index = DOF_Hv), m/s
         15     1.22528610518E-004                                                     F               2         First time derivative of Platform roll tilt rotation DOF (internal DOF index = DOF_R), rad/s
         16     8.61662556417E-005                                                     F               2         First time derivative of Platform pitch tilt rotation DOF (internal DOF index = DOF_P), rad/s
         17    -3.49482070305E-006                                                     F               2         First time derivative of Platform yaw rotation DOF (internal DOF index = DOF_Y), rad/s
         18    -2.27005556226E-002                                                     F               2         First time derivative of 1st tower fore-aft bending mode DOF (internal DOF index = DOF_TFA1), m/s
         19    -2.14001629502E-002                                                     F               2         First time derivative of 1st tower side-to-side bending mode DOF (internal DOF index = DOF_TSS1), m/s
         20     4.56427806057E-005                                                     F               2         First time derivative of 2nd tower fore-aft bending mode DOF (internal DOF index = DOF_TFA2), m/s
         21     1.77021629497E-005                                                     F               2         First time derivative of 2nd tower side-to-side bending mode DOF (internal DOF index = DOF_TSS2), m/s
         22     7.91950106621E-001                                                     F               2         First time derivative of Variable speed generator DOF (internal DOF index = DOF_GeAz), rad/s

Order of continuous state derivatives:
   Row/Column Operating Point                                                   Rotating Frame? Derivative Order Description
   ---------- ---------------                                                   --------------- ---------------- -----------
          1    -7.19912204659E-005                                                     F               2         First time derivative of Platform horizontal surge translation DOF (internal DOF index = DOF_Sg), m/s
          2    -1.64239481091E-003                                                     F               2         First time derivative of Platform horizontal sway translation DOF (internal DOF index = DOF_Sw), m/s
          3     1.90558528993E-003                                                     F               2         First time derivative of Platform vertical heave translation DOF (internal DOF index = DOF_Hv), m/s
          4     1.22528610518E-004                                                     F               2         First time derivative of Platform roll tilt rotation DOF (internal DOF index = DOF_R), rad/s
          5     8.61662556417E-005                                                     F               2         First time derivative of Platform pitch tilt rotation DOF (internal DOF index = DOF_P), rad/s
          6    -3.49482070305E-006                                                     F               2         First time derivative of Platform yaw rotation DOF (internal DOF index = DOF_Y), rad/s
          7    -2.27005556226E-002                                                     F               2         First time derivative of 1st tower fore-aft bending mode DOF (internal DOF index = DOF_TFA1), m/s
          8    -2.14001629502E-002                                                     F               2         First time derivative of 1st tower side-to-side bending mode DOF (internal DOF index = DOF_TSS1), m/s
          9     4.56427806057E-005                                                     F               2         First time derivative of 2nd tower fore-aft bending mode DOF (internal DOF index = DOF_TFA2), m/s
         10     1.77021629497E-005                                                     F               2         First time derivative of 2nd tower side-to-side bending mode DOF (internal DOF index = DOF_TSS2), m/s
         11     7.91950106621E-001                                                     F               2         First time derivative of Variable speed generator DOF (internal DOF index = DOF_GeAz), rad/s
         12     9.44146327674E-003                                                     F               2         First time derivative of First time derivative of Platform horizontal surge translation DOF (internal DOF index = DOF_Sg), m/s/s
         13     8.61403997988E-004                                                     F               2         First time derivative of First time derivative of Platform horizontal sway translation DOF (internal DOF index = DOF_Sw), m/s/s
         14    -1.74946337938E-003                                                     F               2         First time derivative of First time derivative of Platform vertical heave translation DOF (internal DOF index = DOF_Hv), m/s/s
         15    -3.88509688491E-005                                                     F               2         First time derivative of First time derivative of Platform roll tilt rotation DOF (internal DOF index = DOF_R), rad/s/s
         16     5.35644416232E-004                                                     F               2         First time derivative of First time derivative of Platform pitch tilt rotation DOF (internal DOF index = DOF_P), rad/s/s
         17     4.57077803730E-005                                                     F               2         First time derivative of First time derivative of Platform yaw rotation DOF (internal DOF index = DOF_Y), rad/s/s
         18    -1.20806656778E-001                                                     F               2         First time derivative of First time derivative of 1st tower fore-aft bending mode DOF (internal DOF index = DOF_TFA1), m/s/s
         19     1.44762429409E-003                                                     F               2         First time derivative of First time derivative of 1st tower side-to-side bending mode DOF (internal DOF index = DOF_TSS1), m/s/s
         20     2.34505487606E-003                                                     F               2         First time derivative of First time derivative of 2nd tower fore-aft bending mode DOF (internal DOF index = DOF_TFA2), m/s/s
         21    -3.88013722841E-006                                                     F               2         First time derivative of First time derivative of 2nd tower side-to-side bending mode DOF (internal DOF index = DOF_TSS2), m/s/s
         22     6.72144291457E-004                                                     F               2         First time derivative of First time derivative of Variable speed generator DOF (internal DOF index = DOF_GeAz), rad/s/s

Order of inputs:
     Column   Operating Point                                                   Rotating Frame? Derivative Order Description
   ---------- ---------------                                                   --------------- ---------------- -----------
          1     3.99778991699E+002                                                     F               0         Blade 1 X force, node 1, N
          2     1.70347244263E+002                                                     F               0         Blade 1 Y force, node 1, N
          3     3.16348762512E+001                                                     F               0         Blade 1 Z force, node 1, N
          4     1.54194860840E+003                                                     F               0         Blade 1 X force, node 2, N
          5     2.66965698242E+002                                                     F               0         Blade 1 Y force, node 2, N
          6    -1.41636947632E+002                                                     F               0         Blade 1 Z force, node 2, N
          7     1.73299157715E+003                                                     F               0         Blade 1 X force, node 3, N
          8    -1.05704254150E+002                                                     F               0         Blade 1 Y force, node 3, N
          9    -4.33438110352E+002                                                     F               0         Blade 1 Z force, node 3, N
         10     2.08541845703E+003                                                     F               0         Blade 1 X force, node 4, N
         11    -4.49324707031E+002                                                     F               0         Blade 1 Y force, node 4, N
         12    -7.39314208984E+002                                                     F               0         Blade 1 Z force, node 4, N
         13     2.43786303711E+003                                                     F               0         Blade 1 X force, node 5, N
         14    -7.92951904297E+002                                                     F               0         Blade 1 Y force, node 5, N
         15    -1.04519860840E+003                                                     F               0         Blade 1 Z force, node 5, N
         16     2.79029418945E+003                                                     F               0         Blade 1 X force, node 6, N
         17    -1.13657592773E+003                                                     F               0         Blade 1 Y force, node 6, N
         18    -1.35107800293E+003                                                     F               0         Blade 1 Z force, node 6, N
         19     3.14270385742E+003                                                     F               0         Blade 1 X force, node 7, N
         20    -1.48019030762E+003                                                     F               0         Blade 1 Y force, node 7, N
         21    -1.65694653320E+003                                                     F               0         Blade 1 Z force, node 7, N
         22     3.49513085938E+003                                                     F               0         Blade 1 X force, node 8, N
         23    -1.82381066895E+003                                                     F               0         Blade 1 Y force, node 8, N
         24    -1.96282250977E+003                                                     F               0         Blade 1 Z force, node 8, N
         25     3.84755786133E+003                                                     F               0         Blade 1 X force, node 9, N
         26    -2.16743139648E+003                                                     F               0         Blade 1 Y force, node 9, N
         27    -2.26869848633E+003                                                     F               0         Blade 1 Z force, node 9, N
         28     4.19998486328E+003                                                     F               0         Blade 1 X force, node 10, N
         29    -2.51105151367E+003                                                     F               0         Blade 1 Y force, node 10, N
         30    -2.57457470703E+003                                                     F               0         Blade 1 Z force, node 10, N
         31     4.55241210938E+003                                                     F               0         Blade 1 X force, node 11, N
         32    -2.85467236328E+003                                                     F               0         Blade 1 Y force, node 11, N
         33    -2.88045068359E+003                                                     F               0         Blade 1 Z force, node 11, N
         34     4.90487353516E+003                                                     F               0         Blade 1 X force, node 12, N
         35    -3.19831542969E+003                                                     F               0         Blade 1 Y force, node 12, N
         36    -3.18634936523E+003                                                     F               0         Blade 1 Z force, node 12, N
         37     5.25730371094E+003                                                     F               0         Blade 1 X force, node 13, N
         38    -3.54193920898E+003                                                     F               0         Blade 1 Y force, node 13, N
         39    -3.49222875977E+003                                                     F               0         Blade 1 Z force, node 13, N
         40     5.60969775391E+003                                                     F               0         Blade 1 X force, node 14, N
         41    -3.88553833008E+003                                                     F               0         Blade 1 Y force, node 14, N
         42    -3.79808325195E+003                                                     F               0         Blade 1 Z force, node 14, N
         43     5.96216455078E+003                                                     F               0         Blade 1 X force, node 15, N
         44    -4.22918701172E+003                                                     F               0         Blade 1 Y force, node 15, N
         45    -4.10398730469E+003                                                     F               0         Blade 1 Z force, node 15, N
         46     6.31455078125E+003                                                     F               0         Blade 1 X force, node 16, N
         47    -4.57277734375E+003                                                     F               0         Blade 1 Y force, node 16, N
         48    -4.40983447266E+003                                                     F               0         Blade 1 Z force, node 16, N
         49     7.71704296875E+003                                                     F               0         Blade 1 X force, node 17, N
         50    -5.67822949219E+003                                                     F               0         Blade 1 Y force, node 17, N
         51    -5.44998876953E+003                                                     F               0         Blade 1 Z force, node 17, N
         52     5.77461523438E+003                                                     F               0         Blade 1 X force, node 18, N
         53    -4.18108300781E+003                                                     F               0         Blade 1 Y force, node 18, N
         54    -4.03229663086E+003                                                     F               0         Blade 1 Z force, node 18, N
         55     6.93131982422E+003                                                     F               0         Blade 1 X force, node 19, N
         56    -4.88614062500E+003                                                     F               0         Blade 1 Y force, node 19, N
         57    -4.75047460938E+003                                                     F               0         Blade 1 Z force, node 19, N
         58     5.78761621094E+003                                                     F               0         Blade 1 X force, node 20, N
         59    -3.97328564453E+003                                                     F               0         Blade 1 Y force, node 20, N
         60    -3.89455737305E+003                                                     F               0         Blade 1 Z force, node 20, N
         61     8.34142773438E+003                                                     F               0         Blade 1 X force, node 21, N
         62    -5.55315869141E+003                                                     F               0         Blade 1 Y force, node 21, N
         63    -5.49587255859E+003                                                     F               0         Blade 1 Z force, node 21, N
         64     7.18132177734E+003                                                     F               0         Blade 1 X force, node 22, N
         65    -4.64031640625E+003                                                     F               0         Blade 1 Y force, node 22, N
         66    -4.63653759766E+003                                                     F               0         Blade 1 Z force, node 22, N
         67     7.21259667969E+003                                                     F               0         Blade 1 X force, node 23, N
         68    -4.53215771484E+003                                                     F               0         Blade 1 Y force, node 23, N
         69    -4.56996386719E+003                                                     F               0         Blade 1 Z force, node 23, N
         70     7.36937451172E+003                                                     F               0         Blade 1 X force, node 24, N
         71    -4.50291210938E+003                                                     F               0         Blade 1 Y force, node 24, N
         72    -4.58294384766E+003                                                     F               0         Blade 1 Z force, node 24, N
         73     7.39034716797E+003                                                     F               0         Blade 1 X force, node 25, N
         74    -4.39579296875E+003                                                     F               0         Blade 1 Y force, node 25, N
         75    -4.51492089844E+003                                                     F               0         Blade 1 Z force, node 25, N
         76     7.45183007812E+003                                                     F               0         Blade 1 X force, node 26, N
         77    -4.31507226562E+003                                                     F               0         Blade 1 Y force, node 26, N
         78    -4.47320263672E+003                                                     F               0         Blade 1 Z force, node 26, N
         79     8.73681054688E+003                                                     F               0         Blade 1 X force, node 27, N
         80    -4.91612695312E+003                                                     F               0         Blade 1 Y force, node 27, N
         81    -5.14787744141E+003                                                     F               0         Blade 1 Z force, node 27, N
         82     6.32467529297E+003                                                     F               0         Blade 1 X force, node 28, N
         83    -3.46190893555E+003                                                     F               0         Blade 1 Y force, node 28, N
         84    -3.66108886719E+003                                                     F               0         Blade 1 Z force, node 28, N
         85     7.57568017578E+003                                                     F               0         Blade 1 X force, node 29, N
         86    -4.05032934570E+003                                                     F               0         Blade 1 Y force, node 29, N
         87    -4.32012695312E+003                                                     F               0         Blade 1 Z force, node 29, N
         88     6.31478466797E+003                                                     F               0         Blade 1 X force, node 30, N
         89    -3.29674072266E+003                                                     F               0         Blade 1 Y force, node 30, N
         90    -3.54738183594E+003                                                     F               0         Blade 1 Z force, node 30, N
         91     8.89375000000E+003                                                     F               0         Blade 1 X force, node 31, N
         92    -4.51668750000E+003                                                     F               0         Blade 1 Y force, node 31, N
         93    -4.91066943359E+003                                                     F               0         Blade 1 Z force, node 31, N
         94     7.58812548828E+003                                                     F               0         Blade 1 X force, node 32, N
         95    -3.75215747070E+003                                                     F               0         Blade 1 Y force, node 32, N
         96    -4.12118603516E+003                                                     F               0         Blade 1 Z force, node 32, N
         97     7.56499658203E+003                                                     F               0         Blade 1 X force, node 33, N
         98    -3.64585034180E+003                                                     F               0         Blade 1 Y force, node 33, N
         99    -4.04449902344E+003                                                     F               0         Blade 1 Z force, node 33, N
        100     7.53660937500E+003                                                     F               0         Blade 1 X force, node 34, N
        101    -3.53931958008E+003                                                     F               0         Blade 1 Y force, node 34, N
        102    -3.96656323242E+003                                                     F               0         Blade 1 Z force, node 34, N
        103     7.47943408203E+003                                                     F               0         Blade 1 X force, node 35, N
        104    -3.42816967773E+003                                                     F               0         Blade 1 Y force, node 35, N
        105    -3.87949169922E+003                                                     F               0         Blade 1 Z force, node 35, N
        106     7.41307128906E+003                                                     F               0         Blade 1 X force, node 36, N
        107    -3.31494921875E+003                                                     F               0         Blade 1 Y force, node 36, N
        108    -3.78910156250E+003                                                     F               0         Blade 1 Z force, node 36, N
        109     8.57651269531E+003                                                     F               0         Blade 1 X force, node 37, N
        110    -3.73236962891E+003                                                     F               0         Blade 1 Y force, node 37, N
        111    -4.31426660156E+003                                                     F               0         Blade 1 Z force, node 37, N
        112     6.02254687500E+003                                                     F               0         Blade 1 X force, node 38, N
        113    -2.55527978516E+003                                                     F               0         Blade 1 Y force, node 38, N
        114    -2.98516918945E+003                                                     F               0         Blade 1 Z force, node 38, N
        115     7.14527490234E+003                                                     F               0         Blade 1 X force, node 39, N
        116    -2.96748339844E+003                                                     F               0         Blade 1 Y force, node 39, N
        117    -3.49830444336E+003                                                     F               0         Blade 1 Z force, node 39, N
        118     5.89822412109E+003                                                     F               0         Blade 1 X force, node 40, N
        119    -2.39495825195E+003                                                     F               0         Blade 1 Y force, node 40, N
        120    -2.85083593750E+003                                                     F               0         Blade 1 Z force, node 40, N
        121     8.05259130859E+003                                                     F               0         Blade 1 X force, node 41, N
        122    -3.18417602539E+003                                                     F               0         Blade 1 Y force, node 41, N
        123    -3.83429345703E+003                                                     F               0         Blade 1 Z force, node 41, N
        124     6.77097119141E+003                                                     F               0         Blade 1 X force, node 42, N
        125    -2.60952587891E+003                                                     F               0         Blade 1 Y force, node 42, N
        126    -3.17816796875E+003                                                     F               0         Blade 1 Z force, node 42, N
        127     6.62567968750E+003                                                     F               0         Blade 1 X force, node 43, N
        128    -2.48891943359E+003                                                     F               0         Blade 1 Y force, node 43, N
        129    -3.06629833984E+003                                                     F               0         Blade 1 Z force, node 43, N
        130     6.51080468750E+003                                                     F               0         Blade 1 X force, node 44, N
        131    -2.38126000977E+003                                                     F               0         Blade 1 Y force, node 44, N
        132    -2.96953369141E+003                                                     F               0         Blade 1 Z force, node 44, N
        133     6.28048535156E+003                                                     F               0         Blade 1 X force, node 45, N
        134    -2.23967944336E+003                                                     F               0         Blade 1 Y force, node 45, N