
Linearized model: Predictions were generated on 13-Feb-2024 at 12:12:09 using OpenFAST, compiled as a 64-bit application using single precision at commit v3.5.1
 linked with  NWTC Subroutine Library; ElastoDyn; InflowWind; AeroDyn; ServoDyn; HydroDyn; MAP++ (<1.20.10>, <Oct-20-2023>)

Description from the FAST input file: CCT-9 Campign 4 model. Input files to be run with OpenFAST 3.5.0. GitHub branch from Lu Wang (https://github.com/luwang00/openfast/tree/dev) compiled on March 7, 2023.

Simulation information:
   Simulation time:                   774.8500 s
   Rotor Speed:                         0.7919 rad/s
   Azimuth:                             3.4958 rad
   Wind Speed:                         24.0000 m/s
   Number of continuous states:        22
   Number of discrete states:           0
   Number of constraint states:         0
   Number of inputs:                 1890
   Number of outputs:                  25
   Jacobians included in this file?    No

Order of continuous states:
   Row/Column Operating Point                                                   Rotating Frame? Derivative Order Description
   ---------- ---------------                                                   --------------- ---------------- -----------
          1     6.82508802414E+000                                                     F               2         Platform horizontal surge translation DOF (internal DOF index = DOF_Sg), m
          2    -8.25659513474E-001                                                     F               2         Platform horizontal sway translation DOF (internal DOF index = DOF_Sw), m
          3    -1.08226530254E-001                                                     F               2         Platform vertical heave translation DOF (internal DOF index = DOF_Hv), m
          4     5.44072911143E-002                                                     F               2         Platform roll tilt rotation DOF (internal DOF index = DOF_R), rad
          5     9.53118279576E-002                                                     F               2         Platform pitch tilt rotation DOF (internal DOF index = DOF_P), rad
          6    -9.29886940867E-003                                                     F               2         Platform yaw rotation DOF (internal DOF index = DOF_Y), rad
          7     5.24847030640E-001                                                     F               2         1st tower fore-aft bending mode DOF (internal DOF index = DOF_TFA1), m
          8     2.63902127743E-001                                                     F               2         1st tower side-to-side bending mode DOF (internal DOF index = DOF_TSS1), m
          9     1.53390702326E-003                                                     F               2         2nd tower fore-aft bending mode DOF (internal DOF index = DOF_TFA2), m
         10    -2.94567493256E-004                                                     F               2         2nd tower side-to-side bending mode DOF (internal DOF index = DOF_TSS2), m
         11     1.92503356934E+000                                                     F               2         Variable speed generator DOF (internal DOF index = DOF_GeAz), rad
         12     8.42620327603E-004                                                     F               2         First time derivative of Platform horizontal surge translation DOF (internal DOF index = DOF_Sg), m/s
         13     2.65495222993E-003                                                     F               2         First time derivative of Platform horizontal sway translation DOF (internal DOF index = DOF_Sw), m/s
         14    -3.00952093676E-003                                                     F               2         First time derivative of Platform vertical heave translation DOF (internal DOF index = DOF_Hv), m/s
         15    -1.02858954051E-004                                                     F               2         First time derivative of Platform roll tilt rotation DOF (internal DOF index = DOF_R), rad/s
         16     1.95418633666E-005                                                     F               2         First time derivative of Platform pitch tilt rotation DOF (internal DOF index = DOF_P), rad/s
         17     1.45288859130E-005                                                     F               2         First time derivative of Platform yaw rotation DOF (internal DOF index = DOF_Y), rad/s
         18    -5.57505572215E-003                                                     F               2         First time derivative of 1st tower fore-aft bending mode DOF (internal DOF index = DOF_TFA1), m/s
         19     2.14806962758E-002                                                     F               2         First time derivative of 1st tower side-to-side bending mode DOF (internal DOF index = DOF_TSS1), m/s
         20    -2.05146905500E-004                                                     F               2         First time derivative of 2nd tower fore-aft bending mode DOF (internal DOF index = DOF_TFA2), m/s
         21     8.02569684311E-006                                                     F               2         First time derivative of 2nd tower side-to-side bending mode DOF (internal DOF index = DOF_TSS2), m/s
         22     7.91905939579E-001                                                     F               2         First time derivative of Variable speed generator DOF (internal DOF index = DOF_GeAz), rad/s

Order of continuous state derivatives:
   Row/Column Operating Point                                                   Rotating Frame? Derivative Order Description
   ---------- ---------------                                                   --------------- ---------------- -----------
          1     8.42620327603E-004                                                     F               2         First time derivative of Platform horizontal surge translation DOF (internal DOF index = DOF_Sg), m/s
          2     2.65495222993E-003                                                     F               2         First time derivative of Platform horizontal sway translation DOF (internal DOF index = DOF_Sw), m/s
          3    -3.00952093676E-003                                                     F               2         First time derivative of Platform vertical heave translation DOF (internal DOF index = DOF_Hv), m/s
          4    -1.02858954051E-004                                                     F               2         First time derivative of Platform roll tilt rotation DOF (internal DOF index = DOF_R), rad/s
          5     1.95418633666E-005                                                     F               2         First time derivative of Platform pitch tilt rotation DOF (internal DOF index = DOF_P), rad/s
          6     1.45288859130E-005                                                     F               2         First time derivative of Platform yaw rotation DOF (internal DOF index = DOF_Y), rad/s
          7    -5.57505572215E-003                                                     F               2         First time derivative of 1st tower fore-aft bending mode DOF (internal DOF index = DOF_TFA1), m/s
          8     2.14806962758E-002                                                     F               2         First time derivative of 1st tower side-to-side bending mode DOF (internal DOF index = DOF_TSS1), m/s
          9    -2.05146905500E-004                                                     F               2         First time derivative of 2nd tower fore-aft bending mode DOF (internal DOF index = DOF_TFA2), m/s
         10     8.02569684311E-006                                                     F               2         First time derivative of 2nd tower side-to-side bending mode DOF (internal DOF index = DOF_TSS2), m/s
         11     7.91905939579E-001                                                     F               2         First time derivative of Variable speed generator DOF (internal DOF index = DOF_GeAz), rad/s
         12    -8.76828283072E-003                                                     F               2         First time derivative of First time derivative of Platform horizontal surge translation DOF (internal DOF index = DOF_Sg), m/s/s
         13     2.28412356228E-003                                                     F               2         First time derivative of First time derivative of Platform horizontal sway translation DOF (internal DOF index = DOF_Sw), m/s/s
         14    -7.40143645089E-004                                                     F               2         First time derivative of First time derivative of Platform vertical heave translation DOF (internal DOF index = DOF_Hv), m/s/s
         15    -1.30617103423E-004                                                     F               2         First time derivative of First time derivative of Platform roll tilt rotation DOF (internal DOF index = DOF_R), rad/s/s
         16    -5.62793517020E-004                                                     F               2         First time derivative of First time derivative of Platform pitch tilt rotation DOF (internal DOF index = DOF_P), rad/s/s
         17    -3.40701662935E-005                                                     F               2         First time derivative of First time derivative of Platform yaw rotation DOF (internal DOF index = DOF_Y), rad/s/s
         18     1.26839429140E-001                                                     F               2         First time derivative of First time derivative of 1st tower fore-aft bending mode DOF (internal DOF index = DOF_TFA1), m/s/s
         19     2.75814756751E-002                                                     F               2         First time derivative of First time derivative of 1st tower side-to-side bending mode DOF (internal DOF index = DOF_TSS1), m/s/s
         20    -1.62502250168E-003                                                     F               2         First time derivative of First time derivative of 2nd tower fore-aft bending mode DOF (internal DOF index = DOF_TFA2), m/s/s
         21     4.04981110478E-004                                                     F               2         First time derivative of First time derivative of 2nd tower side-to-side bending mode DOF (internal DOF index = DOF_TSS2), m/s/s
         22    -6.01362378802E-004                                                     F               2         First time derivative of First time derivative of Variable speed generator DOF (internal DOF index = DOF_GeAz), rad/s/s

Order of inputs:
     Column   Operating Point                                                   Rotating Frame? Derivative Order Description
   ---------- ---------------                                                   --------------- ---------------- -----------
          1     3.56661895752E+002                                                     F               0         Blade 1 X force, node 1, N
          2    -5.73446197510E+001                                                     F               0         Blade 1 Y force, node 1, N
          3    -1.00002372742E+002                                                     F               0         Blade 1 Z force, node 1, N
          4     1.37800305176E+003                                                     F               0         Blade 1 X force, node 2, N
          5    -9.99004669189E+001                                                     F               0         Blade 1 Y force, node 2, N
          6    -3.31984497070E+002                                                     F               0         Blade 1 Z force, node 2, N
          7     1.48855017090E+003                                                     F               0         Blade 1 X force, node 3, N
          8     1.05686920166E+002                                                     F               0         Blade 1 Y force, node 3, N
          9    -2.63128021240E+002                                                     F               0         Blade 1 Z force, node 3, N
         10     1.74170727539E+003                                                     F               0         Blade 1 X force, node 4, N
         11     3.02831207275E+002                                                     F               0         Blade 1 Y force, node 4, N
         12    -2.27781387329E+002                                                     F               0         Blade 1 Z force, node 4, N
         13     1.99487927246E+003                                                     F               0         Blade 1 X force, node 5, N
         14     4.99979705811E+002                                                     F               0         Blade 1 Y force, node 5, N
         15    -1.92435867310E+002                                                     F               0         Blade 1 Z force, node 5, N
         16     2.24803930664E+003                                                     F               0         Blade 1 X force, node 6, N
         17     6.97126098633E+002                                                     F               0         Blade 1 Y force, node 6, N
         18    -1.57088836670E+002                                                     F               0         Blade 1 Z force, node 6, N
         19     2.50118261719E+003                                                     F               0         Blade 1 X force, node 7, N
         20     8.94266601562E+002                                                     F               0         Blade 1 Y force, node 7, N
         21    -1.21740959167E+002                                                     F               0         Blade 1 Z force, node 7, N
         22     2.75434008789E+003                                                     F               0         Blade 1 X force, node 8, N
         23     1.09141101074E+003                                                     F               0         Blade 1 Y force, node 8, N
         24    -8.63943099976E+001                                                     F               0         Blade 1 Z force, node 8, N
         25     3.00749707031E+003                                                     F               0         Blade 1 X force, node 9, N
         26     1.28855529785E+003                                                     F               0         Blade 1 Y force, node 9, N
         27    -5.10476570129E+001                                                     F               0         Blade 1 Z force, node 9, N
         28     3.26065478516E+003                                                     F               0         Blade 1 X force, node 10, N
         29     1.48569946289E+003                                                     F               0         Blade 1 Y force, node 10, N
         30    -1.57010154724E+001                                                     F               0         Blade 1 Z force, node 10, N
         31     3.51381201172E+003                                                     F               0         Blade 1 X force, node 11, N
         32     1.68284387207E+003                                                     F               0         Blade 1 Y force, node 11, N
         33     1.96456413269E+001                                                     F               0         Blade 1 Z force, node 11, N
         34     3.76699560547E+003                                                     F               0         Blade 1 X force, node 12, N
         35     1.88000158691E+003                                                     F               0         Blade 1 Y force, node 12, N
         36     5.49928207397E+001                                                     F               0         Blade 1 Z force, node 12, N
         37     4.02015576172E+003                                                     F               0         Blade 1 X force, node 13, N
         38     2.07714770508E+003                                                     F               0         Blade 1 Y force, node 13, N
         39     9.03398666382E+001                                                     F               0         Blade 1 Z force, node 13, N
         40     4.27328759766E+003                                                     F               0         Blade 1 X force, node 14, N
         41     2.27427929688E+003                                                     F               0         Blade 1 Y force, node 14, N
         42     1.25686096191E+002                                                     F               0         Blade 1 Z force, node 14, N
         43     4.52647460938E+003                                                     F               0         Blade 1 X force, node 15, N
         44     2.47144042969E+003                                                     F               0         Blade 1 Y force, node 15, N
         45     1.61033874512E+002                                                     F               0         Blade 1 Z force, node 15, N
         46     4.77960107422E+003                                                     F               0         Blade 1 X force, node 16, N
         47     2.66856738281E+003                                                     F               0         Blade 1 Y force, node 16, N
         48     1.96379257202E+002                                                     F               0         Blade 1 Z force, node 16, N
         49     5.82206835938E+003                                                     F               0         Blade 1 X force, node 17, N
         50     3.31219311523E+003                                                     F               0         Blade 1 Y force, node 17, N
         51     2.66744995117E+002                                                     F               0         Blade 1 Z force, node 17, N
         52     4.32608837891E+003                                                     F               0         Blade 1 X force, node 18, N
         53     2.45656567383E+003                                                     F               0         Blade 1 Y force, node 18, N
         54     1.96166488647E+002                                                     F               0         Blade 1 Z force, node 18, N
         55     5.15330175781E+003                                                     F               0         Blade 1 X force, node 19, N
         56     2.89841650391E+003                                                     F               0         Blade 1 Y force, node 19, N
         57     2.21212295532E+002                                                     F               0         Blade 1 Z force, node 19, N
         58     4.27131396484E+003                                                     F               0         Blade 1 X force, node 20, N
         59     2.37973754883E+003                                                     F               0         Blade 1 Y force, node 20, N
         60     1.73241943359E+002                                                     F               0         Blade 1 Z force, node 20, N
         61     6.12061279297E+003                                                     F               0         Blade 1 X force, node 21, N
         62     3.38075708008E+003                                                     F               0         Blade 1 Y force, node 21, N
         63     2.35147064209E+002                                                     F               0         Blade 1 Z force, node 21, N
         64     5.26765820312E+003                                                     F               0         Blade 1 X force, node 22, N
         65     2.89887915039E+003                                                     F               0         Blade 1 Y force, node 22, N
         66     1.97574676514E+002                                                     F               0         Blade 1 Z force, node 22, N
         67     5.29144384766E+003                                                     F               0         Blade 1 X force, node 23, N
         68     2.90333032227E+003                                                     F               0         Blade 1 Y force, node 23, N
         69     1.94605026245E+002                                                     F               0         Blade 1 Z force, node 23, N
         70     5.48152148438E+003                                                     F               0         Blade 1 X force, node 24, N
         71     3.01159350586E+003                                                     F               0         Blade 1 Y force, node 24, N
         72     2.03370635986E+002                                                     F               0         Blade 1 Z force, node 24, N
         73     5.85859375000E+003                                                     F               0         Blade 1 X force, node 25, N
         74     3.27150219727E+003                                                     F               0         Blade 1 Y force, node 25, N
         75     2.40938476562E+002                                                     F               0         Blade 1 Z force, node 25, N
         76     6.33458593750E+003                                                     F               0         Blade 1 X force, node 26, N
         77     3.59746875000E+003                                                     F               0         Blade 1 Y force, node 26, N
         78     2.87411407471E+002                                                     F               0         Blade 1 Z force, node 26, N
         79     7.93781884766E+003                                                     F               0         Blade 1 X force, node 27, N
         80     4.56920507812E+003                                                     F               0         Blade 1 Y force, node 27, N
         81     3.87532501221E+002                                                     F               0         Blade 1 Z force, node 27, N
         82     6.01935400391E+003                                                     F               0         Blade 1 X force, node 28, N
         83     3.45232128906E+003                                                     F               0         Blade 1 Y force, node 28, N
         84     2.88252502441E+002                                                     F               0         Blade 1 Z force, node 28, N
         85     7.44247900391E+003                                                     F               0         Blade 1 X force, node 29, N
         86     4.22920654297E+003                                                     F               0         Blade 1 Y force, node 29, N
         87     3.38820587158E+002                                                     F               0         Blade 1 Z force, node 29, N
         88     6.39551953125E+003                                                     F               0         Blade 1 X force, node 30, N
         89     3.60284497070E+003                                                     F               0         Blade 1 Y force, node 30, N
         90     2.77109771729E+002                                                     F               0         Blade 1 Z force, node 30, N
         91     9.26071191406E+003                                                     F               0         Blade 1 X force, node 31, N
         92     5.15305712891E+003                                                     F               0         Blade 1 Y force, node 31, N
         93     3.72705535889E+002                                                     F               0         Blade 1 Z force, node 31, N
         94     8.01349218750E+003                                                     F               0         Blade 1 X force, node 32, N
         95     4.38168066406E+003                                                     F               0         Blade 1 Y force, node 32, N
         96     2.87922271729E+002                                                     F               0         Blade 1 Z force, node 32, N
         97     8.08530078125E+003                                                     F               0         Blade 1 X force, node 33, N
         98     4.34689062500E+003                                                     F               0         Blade 1 Y force, node 33, N
         99     2.57397308350E+002                                                     F               0         Blade 1 Z force, node 33, N
        100     8.15427294922E+003                                                     F               0         Blade 1 X force, node 34, N
        101     4.30921191406E+003                                                     F               0         Blade 1 Y force, node 34, N
        102     2.26171875000E+002                                                     F               0         Blade 1 Z force, node 34, N
        103     8.20360449219E+003                                                     F               0         Blade 1 X force, node 35, N
        104     4.25552539062E+003                                                     F               0         Blade 1 Y force, node 35, N
        105     1.91885437012E+002                                                     F               0         Blade 1 Z force, node 35, N
        106     8.24584472656E+003                                                     F               0         Blade 1 X force, node 36, N
        107     4.19670312500E+003                                                     F               0         Blade 1 Y force, node 36, N
        108     1.56781997681E+002                                                     F               0         Blade 1 Z force, node 36, N
        109     9.68662011719E+003                                                     F               0         Blade 1 X force, node 37, N
        110     4.82963867188E+003                                                     F               0         Blade 1 Y force, node 37, N
        111     1.39317962646E+002                                                     F               0         Blade 1 Z force, node 37, N
        112     6.92377783203E+003                                                     F               0         Blade 1 X force, node 38, N
        113     3.37836791992E+003                                                     F               0         Blade 1 Y force, node 38, N
        114     6.66124114990E+001                                                     F               0         Blade 1 Z force, node 38, N
        115     8.34980273438E+003                                                     F               0         Blade 1 X force, node 39, N
        116     3.99733422852E+003                                                     F               0         Blade 1 Y force, node 39, N
        117     4.59796218872E+001                                                     F               0         Blade 1 Z force, node 39, N
        118     7.00770458984E+003                                                     F               0         Blade 1 X force, node 40, N
        119     3.29046606445E+003                                                     F               0         Blade 1 Y force, node 40, N
        120     9.81736469269E+000                                                     F               0         Blade 1 Z force, node 40, N
        121     9.75267285156E+003                                                     F               0         Blade 1 X force, node 41, N
        122     4.47603710938E+003                                                     F               0         Blade 1 Y force, node 41, N
        123    -3.25289306641E+001                                                     F               0         Blade 1 Z force, node 41, N
        124     8.35652734375E+003                                                     F               0         Blade 1 X force, node 42, N
        125     3.74734497070E+003                                                     F               0         Blade 1 Y force, node 42, N
        126    -6.71781768799E+001                                                     F               0         Blade 1 Z force, node 42, N
        127     8.32670703125E+003                                                     F               0         Blade 1 X force, node 43, N
        128     3.65106396484E+003                                                     F               0         Blade 1 Y force, node 43, N
        129    -1.04002067566E+002                                                     F               0         Blade 1 Z force, node 43, N
        130     8.32862695312E+003                                                     F               0         Blade 1 X force, node 44, N
        131     3.56997900391E+003                                                     F               0         Blade 1 Y force, node 44, N
        132    -1.40651107788E+002                                                     F               0         Blade 1 Z force, node 44, N
        133     8.15158203125E+003                                                     F               0         Blade 1 X force, node 45, N
        134     3.41973413086E+003                                                     F               0         Blade 1 Y force, node 45, N