
Linearized model: Predictions were generated on 13-Feb-2024 at 12:12:09 using OpenFAST, compiled as a 64-bit application using single precision at commit v3.5.1
 linked with  NWTC Subroutine Library; ElastoDyn; InflowWind; AeroDyn; ServoDyn; HydroDyn; MAP++ (<1.20.10>, <Oct-20-2023>)

Description from the FAST input file: CCT-9 Campign 4 model. Input files to be run with OpenFAST 3.5.0. GitHub branch from Lu Wang (https://github.com/luwang00/openfast/tree/dev) compiled on March 7, 2023.

Simulation information:
   Simulation time:                   777.7250 s
   Rotor Speed:                         0.7915 rad/s
   Azimuth:                             5.7726 rad
   Wind Speed:                         24.0000 m/s
   Number of continuous states:         0
   Number of discrete states:           0
   Number of constraint states:         0
   Number of inputs:                 1746
   Number of outputs:                   4
   Jacobians included in this file?    No

Order of inputs:
     Column   Operating Point                                                   Rotating Frame? Derivative Order Description
   ---------- ---------------                                                   --------------- ---------------- -----------
          1     8.55982875824E+000                                                     F               0         Tower X translation displacement, node 1, m
          2    -1.81948423386E+000                                                     F               0         Tower Y translation displacement, node 1, m
          3    -2.29921668768E-001                                                     F               0         Tower Z translation displacement, node 1, m
          4     9.73376274109E+000                                                     F               0         Tower X translation displacement, node 2, m
          5    -2.49501776695E+000                                                     F               0         Tower Y translation displacement, node 2, m
          6    -3.04389089346E-001                                                     F               0         Tower Z translation displacement, node 2, m
          7     1.09253673553E+001                                                     F               0         Tower X translation displacement, node 3, m
          8    -3.17825007439E+000                                                     F               0         Tower Y translation displacement, node 3, m
          9    -3.80980521441E-001                                                     F               0         Tower Z translation displacement, node 3, m
         10     1.21301698685E+001                                                     F               0         Tower X translation displacement, node 4, m
         11    -3.86781811714E+000                                                     F               0         Tower Y translation displacement, node 4, m
         12    -4.59214240313E-001                                                     F               0         Tower Z translation displacement, node 4, m
         13     1.33456716537E+001                                                     F               0         Tower X translation displacement, node 5, m
         14    -4.56311273575E+000                                                     F               0         Tower Y translation displacement, node 5, m
         15    -5.38822591305E-001                                                     F               0         Tower Z translation displacement, node 5, m
         16     1.45695419312E+001                                                     F               0         Tower X translation displacement, node 6, m
         17    -5.26348876953E+000                                                     F               0         Tower Y translation displacement, node 6, m
         18    -6.19562149048E-001                                                     F               0         Tower Z translation displacement, node 6, m
         19     1.57992916107E+001                                                     F               0         Tower X translation displacement, node 7, m
         20    -5.96794557571E+000                                                     F               0         Tower Y translation displacement, node 7, m
         21    -7.01108515263E-001                                                     F               0         Tower Z translation displacement, node 7, m
         22     1.70337314606E+001                                                     F               0         Tower X translation displacement, node 8, m
         23    -6.67615842819E+000                                                     F               0         Tower Y translation displacement, node 8, m
         24    -7.83354282379E-001                                                     F               0         Tower Z translation displacement, node 8, m
         25     1.82713203430E+001                                                     F               0         Tower X translation displacement, node 9, m
         26    -7.38735103607E+000                                                     F               0         Tower Y translation displacement, node 9, m
         27    -8.66079986095E-001                                                     F               0         Tower Z translation displacement, node 9, m
         28     1.95108089447E+001                                                     F               0         Tower X translation displacement, node 10, m
         29    -8.10069751740E+000                                                     F               0         Tower Y translation displacement, node 10, m
         30    -9.49128925800E-001                                                     F               0         Tower Z translation displacement, node 10, m
         31     2.07512187958E+001                                                     F               0         Tower X translation displacement, node 11, m
         32    -8.81539344788E+000                                                     F               0         Tower Y translation displacement, node 11, m
         33    -1.03234624863E+000                                                     F               0         Tower Z translation displacement, node 11, m
         34     9.95460808277E-001,  -6.63824705407E-003,  -9.49405431747E-002         F               0         Tower X orientation angle, node 1, rad
         35     1.17671219632E-002,   9.98495042324E-001,   5.35645931959E-002         F               0         Tower Y orientation angle, node 1, rad
         36     9.44420918822E-002,  -5.44386282563E-002,   9.94040787220E-001         F               0         Tower Z orientation angle, node 1, rad
         37     9.95330989361E-001,  -6.56353728846E-003,  -9.62974429131E-002         F               0         Tower X orientation angle, node 2, rad
         38     1.18211042136E-002,   9.98463988304E-001,   5.41286915541E-002         F               0         Tower Y orientation angle, node 2, rad
         39     9.57942605019E-002,  -5.50143048167E-002,   9.93879735470E-001         F               0         Tower Z orientation angle, node 2, rad
         40     9.95217084885E-001,  -6.49818452075E-003,  -9.74718779325E-002         F               0         Tower X orientation angle, node 3, rad
         41     1.18718743324E-002,   9.98434841633E-001,   5.46524599195E-002         F               0         Tower Y orientation angle, node 3, rad
         42     9.69641730189E-002,  -5.55482357740E-002,   9.93736565113E-001         F               0         Tower Z orientation angle, node 3, rad
         43     9.95121598244E-001,  -6.44344510511E-003,  -9.84454452991E-002         F               0         Tower X orientation angle, node 4, rad
         44     1.19186965749E-002,   9.98408019543E-001,   5.51306903362E-002         F               0         Tower Y orientation angle, node 4, rad
         45     9.79334935546E-002,  -5.60350790620E-002,   9.93614137173E-001         F               0         Tower Z orientation angle, node 4, rad
         46     9.95044171810E-001,  -6.39901496470E-003,  -9.92276221514E-002         F               0         Tower X orientation angle, node 5, rad
         47     1.19611807168E-002,   9.98383641243E-001,   5.55614605546E-002         F               0         Tower Y orientation angle, node 5, rad
         48     9.87116917968E-002,  -5.64729906619E-002,   9.93512332439E-001         F               0         Tower Z orientation angle, node 5, rad
         49     9.94983792305E-001,  -6.36423891410E-003,  -9.98335853219E-002         F               0         Tower X orientation angle, node 6, rad
         50     1.19988685474E-002,   9.98361945152E-001,   5.59417568147E-002         F               0         Tower Y orientation angle, node 6, rad
         51     9.93140190840E-002,  -5.68590313196E-002,   9.93430316448E-001         F               0         Tower Z orientation angle, node 6, rad
         52     9.94939923286E-001,  -6.33883429691E-003,  -1.00271478295E-001         F               0         Tower X orientation angle, node 7, rad
         53     1.20307896286E-002,   9.98343467712E-001,   5.62630482018E-002         F               0         Tower Y orientation angle, node 7, rad
         54     9.97487381101E-002,  -5.71846961975E-002,   9.93368029594E-001         F               0         Tower Z orientation angle, node 7, rad
         55     9.94909107685E-001,  -6.32084673271E-003,  -1.00578173995E-001         F               0         Tower X orientation angle, node 8, rad
         56     1.20569104329E-002,   9.98328328133E-001,   5.65256737173E-002         F               0         Tower Y orientation angle, node 8, rad
         57     1.00052751601E-001,  -5.74505664408E-002,   9.93322134018E-001         F               0         Tower Z orientation angle, node 8, rad
         58     9.94889020920E-001,  -6.30906037986E-003,  -1.00776866078E-001         F               0         Tower X orientation angle, node 9, rad
         59     1.20768388733E-002,   9.98316764832E-001,   5.67260570824E-002         F               0         Tower Y orientation angle, node 9, rad
         60     1.00249342620E-001,  -5.76531998813E-002,   9.93290603161E-001         F               0         Tower Z orientation angle, node 9, rad
         61     9.94877636433E-001,  -6.30226777866E-003,  -1.00889980793E-001         F               0         Tower X orientation angle, node 10, rad
         62     1.20902825147E-002,   9.98308897018E-001,   5.68613670766E-002         F               0         Tower Y orientation angle, node 10, rad
         63     1.00361004472E-001,  -5.77898882329E-002,   9.93271350861E-001         F               0         Tower Z orientation angle, node 10, rad
         64     9.94872272015E-001,  -6.29905657843E-003,  -1.00942730904E-001         F               0         Tower X orientation angle, node 11, rad
         65     1.20977815241E-002,   9.98304486275E-001,   5.69369532168E-002         F               0         Tower Y orientation angle, node 11, rad
         66     1.00412935019E-001,  -5.78661784530E-002,   9.93261694908E-001         F               0         Tower Z orientation angle, node 11, rad
         67    -2.40770727396E-003                                                     F               0         Tower X translation velocity, node 1, m/s
         68     7.41037959233E-003                                                     F               0         Tower Y translation velocity, node 1, m/s
         69    -4.52114082873E-003                                                     F               0         Tower Z translation velocity, node 1, m/s
         70    -3.55300377123E-003                                                     F               0         Tower X translation velocity, node 2, m/s
         71     9.29806195199E-003                                                     F               0         Tower Y translation velocity, node 2, m/s
         72    -4.30800206959E-003                                                     F               0         Tower Z translation velocity, node 2, m/s
         73    -3.80205735564E-003                                                     F               0         Tower X translation velocity, node 3, m/s
         74     1.04972878471E-002                                                     F               0         Tower Y translation velocity, node 3, m/s
         75    -4.21709241346E-003                                                     F               0         Tower Z translation velocity, node 3, m/s
         76    -3.40581336059E-003                                                     F               0         Tower X translation velocity, node 4, m/s
         77     1.11292107031E-002                                                     F               0         Tower Y translation velocity, node 4, m/s
         78    -4.22046193853E-003                                                     F               0         Tower Z translation velocity, node 4, m/s
         79    -2.51105031930E-003                                                     F               0         Tower X translation velocity, node 5, m/s
         80     1.12476833165E-002                                                     F               0         Tower Y translation velocity, node 5, m/s
         81    -4.30232333019E-003                                                     F               0         Tower Z translation velocity, node 5, m/s
         82    -1.25118228607E-003                                                     F               0         Tower X translation velocity, node 6, m/s
         83     1.09097566456E-002                                                     F               0         Tower Y translation velocity, node 6, m/s
         84    -4.44719707593E-003                                                     F               0         Tower Z translation velocity, node 6, m/s
         85     2.43722097366E-004                                                     F               0         Tower X translation velocity, node 7, m/s
         86     1.02050639689E-002                                                     F               0         Tower Y translation velocity, node 7, m/s
         87    -4.63737919927E-003                                                     F               0         Tower Z translation velocity, node 7, m/s
         88     1.90527597442E-003                                                     F               0         Tower X translation velocity, node 8, m/s
         89     9.16211120784E-003                                                     F               0         Tower Y translation velocity, node 8, m/s
         90    -4.86462330446E-003                                                     F               0         Tower Z translation velocity, node 8, m/s
         91     3.65887116641E-003                                                     F               0         Tower X translation velocity, node 9, m/s
         92     7.85077735782E-003                                                     F               0         Tower Y translation velocity, node 9, m/s
         93    -5.11738844216E-003                                                     F               0         Tower Z translation velocity, node 9, m/s
         94     5.45254861936E-003                                                     F               0         Tower X translation velocity, node 10, m/s
         95     6.34497404099E-003                                                     F               0         Tower Y translation velocity, node 10, m/s
         96    -5.38601865992E-003                                                     F               0         Tower Z translation velocity, node 10, m/s
         97     7.25235184655E-003                                                     F               0         Tower X translation velocity, node 11, m/s
         98     4.71747154370E-003                                                     F               0         Tower Y translation velocity, node 11, m/s
         99    -5.66266523674E-003                                                     F               0         Tower Z translation velocity, node 11, m/s
        100     2.15948619843E+001                                                     F               0         Hub X translation displacement, node 1, m
        101    -9.20162010193E+000                                                     F               0         Hub Y translation displacement, node 1, m
        102     4.99469181523E-003                                                     F               0         Hub Z translation displacement, node 1, m
        103     9.78926301003E-001,  -2.15886771912E-004,  -2.04213872552E-001         F               0         Hub X orientation angle, node 1, rad
        104    -8.90638306737E-002,   8.99431884289E-001,  -4.27890092134E-001         F               0         Hub Y orientation angle, node 1, rad
        105     1.83768838644E-001,   4.37060922384E-001,   8.80458235741E-001         F               0         Hub Z orientation angle, node 1, rad
        106     7.74922668934E-001                                                     F               0         Hub X rotation velocity, node 1, rad/s
        107    -2.39498804149E-005                                                     F               0         Hub Y rotation velocity, node 1, rad/s
        108    -1.61631643772E-001                                                     F               0         Hub Z rotation velocity, node 1, rad/s
        109     9.62566852570E-001,  -2.61561661959E-001,  -7.10668712854E-002         F               0         Blade root 1 X orientation angle, node 1, rad
        110     1.99233576655E-001,   8.60559821129E-001,  -4.68767255545E-001         F               0         Blade root 1 Y orientation angle, node 1, rad
        111     1.83768838644E-001,   4.37060922384E-001,   8.80458235741E-001         F               0         Blade root 1 Z orientation angle, node 1, rad
        112     8.77501845360E-001,   2.04855054617E-002,  -4.79135513306E-001         F               0         Blade root 2 X orientation angle, node 1, rad
        113     4.79346275330E-001,  -6.82001709938E-002,   8.74971926212E-001         F               0         Blade root 2 Y orientation angle, node 1, rad
        114    -1.47528843954E-002,  -9.97461318970E-001,  -6.96654319763E-002         F               0         Blade root 2 Z orientation angle, node 1, rad
        115     9.69991922379E-001,   2.40456447005E-001,  -3.60045507550E-002         F               0         Blade root 3 X orientation angle, node 1, rad
        116     1.74783408642E-001,  -7.92547881603E-001,  -5.84224820137E-001         F               0         Blade root 3 Y orientation angle, node 1, rad
        117    -1.69015958905E-001,   5.60400366783E-001,  -8.10792803764E-001         F               0         Blade root 3 Z orientation angle, node 1, rad
        118     2.20338516235E+001                                                     F               0         Blade 1 X translation displacement, node 1, m
        119    -6.78030252457E+000                                                     F               0         Blade 1 Y translation displacement, node 1, m
        120    -6.26925408840E-001                                                     F               0         Blade 1 Z translation displacement, node 1, m
        121     2.21396312714E+001                                                     F               0         Blade 1 X translation displacement, node 2, m
        122    -6.19686698914E+000                                                     F               0         Blade 1 Y translation displacement, node 2, m
        123    -7.79187321663E-001                                                     F               0         Blade 1 Z translation displacement, node 2, m
        124     2.35780353546E+001                                                     F               0         Blade 1 X translation displacement, node 3, m
        125     1.73684096336E+000                                                     F               0         Blade 1 Y translation displacement, node 3, m
        126    -2.84971404076E+000                                                     F               0         Blade 1 Z translation displacement, node 3, m
        127     2.38844947815E+001                                                     F               0         Blade 1 X translation displacement, node 4, m
        128     3.42716383934E+000                                                     F               0         Blade 1 Y translation displacement, node 4, m
        129    -3.29085993767E+000                                                     F               0         Blade 1 Z translation displacement, node 4, m
        130     2.41910133362E+001                                                     F               0         Blade 1 X translation displacement, node 5, m
        131     5.11780929565E+000                                                     F               0         Blade 1 Y translation displacement, node 5, m
        132    -3.73207449913E+000                                                     F               0         Blade 1 Z translation displacement, node 5, m
        133     2.44974746704E+001                                                     F               0         Blade 1 X translation displacement, node 6, m
        134     6.80813884735E+000                                                     F               0         Blade 1 Y translation displacement, node 6, m
        135    -4.17322206497E+000                                                     F               0         Blade 1 Z translation displacement, node 6, m
        136     2.48039379120E+001                                                     F               0         Blade 1 X translation displacement, node 7, m
        137     8.49847507477E+000                                                     F               0         Blade 1 Y translation displacement, node 7, m
        138    -4.61435794830E+000                                                     F               0         Blade 1 Z translation displacement, node 7, m
        139     2.51104545593E+001                                                     F               0         Blade 1 X translation displacement, node 8, m
        140     1.01891136169E+001                                                     F               0         Blade 1 Y translation displacement, node 8, m
        141    -5.05558633804E+000                                                     F               0         Blade 1 Z translation displacement, node 8, m
        142     2.54169178009E+001                                                     F               0         Blade 1 X translation displacement, node 9, m
        143     1.18794498444E+001                                                     F               0         Blade 1 Y translation displacement, node 9, m
        144    -5.49672031403E+000                                                     F               0         Blade 1 Z translation displacement, node 9, m
        145     2.57233791351E+001                                                     F               0         Blade 1 X translation displacement, node 10, m
        146     1.35697793961E+001                                                     F               0         Blade 1 Y translation displacement, node 10, m
        147    -5.93786811829E+000                                                     F               0         Blade 1 Z translation displacement, node 10, m
        148     2.60298423767E+001                                                     F               0         Blade 1 X translation displacement, node 11, m
        149     1.52601165771E+001                                                     F               0         Blade 1 Y translation displacement, node 11, m
        150    -6.37900257111E+000                                                     F               0         Blade 1 Z translation displacement, node 11, m
        151     2.63363590240E+001                                                     F               0         Blade 1 X translation displacement, node 12, m
        152     1.69507484436E+001                                                     F               0         Blade 1 Y translation displacement, node 12, m
        153    -6.82022857666E+000                                                     F               0         Blade 1 Z translation displacement, node 12, m
        154     2.66428222656E+001                                                     F               0         Blade 1 X translation displacement, node 13, m
        155     1.86410846710E+001                                                     F               0         Blade 1 Y translation displacement, node 13, m
        156    -7.26136302948E+000                                                     F               0         Blade 1 Z translation displacement, node 13, m
        157     2.69492835999E+001                                                     F               0         Blade 1 X translation displacement, node 14, m
        158     2.03314151764E+001                                                     F               0         Blade 1 Y translation displacement, node 14, m
        159    -7.70251083374E+000                                                     F               0         Blade 1 Z translation displacement, node 14, m
        160     2.72558002472E+001                                                     F               0         Blade 1 X translation displacement, node 15, m
        161     2.20220565796E+001                                                     F               0         Blade 1 Y translation displacement, node 15, m
        162    -8.14373016357E+000                                                     F               0         Blade 1 Z translation displacement, node 15, m
        163     2.75622634888E+001                                                     F               0         Blade 1 X translation displacement, node 16, m
        164     2.37123889923E+001                                                     F               0         Blade 1 Y translation displacement, node 16, m
        165    -8.58487510681E+000                                                     F               0         Blade 1 Z translation displacement, node 16, m
        166     2.78687267303E+001                                                     F               0         Blade 1 X translation displacement, node 17, m
        167     2.54027271271E+001                                                     F               0         Blade 1 Y translation displacement, node 17, m
        168    -9.02600765228E+000                                                     F               0         Blade 1 Z translation displacement, node 17, m
        169     2.81751880646E+001                                                     F               0         Blade 1 X translation displacement, node 18, m
        170     2.70930576324E+001                                                     F               0         Blade 1 Y translation displacement, node 18, m
        171    -9.46715259552E+000                                                     F               0         Blade 1 Z translation displacement, node 18, m
        172     2.84817047119E+001                                                     F               0         Blade 1 X translation displacement, node 19, m
        173     2.87836894989E+001                                                     F               0         Blade 1 Y translation displacement, node 19, m
        174    -9.90837669373E+000                                                     F               0         Blade 1 Z translation displacement, node 19, m
        175     2.87881660461E+001                                                     F               0         Blade 1 X translation displacement, node 20, m
        176     3.04740276337E+001                                                     F               0         Blade 1 Y translation displacement, node 20, m
        177    -1.03495082855E+001                                                     F               0         Blade 1 Z translation displacement, node 20, m
        178     2.90946311951E+001                                                     F               0         Blade 1 X translation displacement, node 21, m
        179     3.21643600464E+001                                                     F               0         Blade 1 Y translation displacement, node 21, m
        180    -1.07906541824E+001                                                     F               0         Blade 1 Z translation displacement, node 21, m
        181     2.94011478424E+001                                                     F               0         Blade 1 X translation displacement, node 22, m
        182     3.38549995422E+001                                                     F               0         Blade 1 Y translation displacement, node 22, m
        183    -1.12318801880E+001                                                     F               0         Blade 1 Z translation displacement, node 22, m