
Linearized model: Predictions were generated on 12-Feb-2024 at 15:30:16 using OpenFAST, compiled as a 64-bit application using single precision at commit v3.5.1
 linked with  NWTC Subroutine Library; ElastoDyn; InflowWind; AeroDyn; ServoDyn; HydroDyn; MAP++ (<1.20.10>, <Oct-20-2023>)

Description from the FAST input file: CCT-9 Campign 4 model. Input files to be run with OpenFAST 3.5.0. GitHub branch from Lu Wang (https://github.com/luwang00/openfast/tree/dev) compiled on March 7, 2023.

Simulation information:
   Simulation time:                  1003.0000 s
   Rotor Speed:                         1.0398 rad/s
   Azimuth:                             4.1677 rad
   Wind Speed:                         12.0000 m/s
   Number of continuous states:        22
   Number of discrete states:           0
   Number of constraint states:         0
   Number of inputs:                 1890
   Number of outputs:                  25
   Jacobians included in this file?    No

Order of continuous states:
   Row/Column Operating Point                     Rotating Frame? Derivative Order Description
   ---------- ---------------                     --------------- ---------------- -----------
          1    1.230E+01                                 F               2         Platform horizontal surge translation DOF (internal DOF index = DOF_Sg), m
          2   -2.189E-01                                 F               2         Platform horizontal sway translation DOF (internal DOF index = DOF_Sw), m
          3   -2.613E-01                                 F               2         Platform vertical heave translation DOF (internal DOF index = DOF_Hv), m
          4    4.947E-02                                 F               2         Platform roll tilt rotation DOF (internal DOF index = DOF_R), rad
          5    1.571E-01                                 F               2         Platform pitch tilt rotation DOF (internal DOF index = DOF_P), rad
          6    9.989E-03                                 F               2         Platform yaw rotation DOF (internal DOF index = DOF_Y), rad
          7    1.084E+00                                 F               2         1st tower fore-aft bending mode DOF (internal DOF index = DOF_TFA1), m
          8    2.061E-01                                 F               2         1st tower side-to-side bending mode DOF (internal DOF index = DOF_TSS1), m
          9    1.614E-03                                 F               2         2nd tower fore-aft bending mode DOF (internal DOF index = DOF_TFA2), m
         10    8.703E-05                                 F               2         2nd tower side-to-side bending mode DOF (internal DOF index = DOF_TSS2), m
         11    2.597E+00                                 F               2         Variable speed generator DOF (internal DOF index = DOF_GeAz), rad
         12   -1.300E-03                                 F               2         First time derivative of Platform horizontal surge translation DOF (internal DOF index = DOF_Sg), m/s
         13   -6.313E-04                                 F               2         First time derivative of Platform horizontal sway translation DOF (internal DOF index = DOF_Sw), m/s
         14    2.411E-04                                 F               2         First time derivative of Platform vertical heave translation DOF (internal DOF index = DOF_Hv), m/s
         15    1.693E-03                                 F               2         First time derivative of Platform roll tilt rotation DOF (internal DOF index = DOF_R), rad/s
         16   -7.214E-05                                 F               2         First time derivative of Platform pitch tilt rotation DOF (internal DOF index = DOF_P), rad/s
         17   -3.177E-04                                 F               2         First time derivative of Platform yaw rotation DOF (internal DOF index = DOF_Y), rad/s
         18    1.569E-03                                 F               2         First time derivative of 1st tower fore-aft bending mode DOF (internal DOF index = DOF_TFA1), m/s
         19    8.712E-03                                 F               2         First time derivative of 1st tower side-to-side bending mode DOF (internal DOF index = DOF_TSS1), m/s
         20    1.107E-05                                 F               2         First time derivative of 2nd tower fore-aft bending mode DOF (internal DOF index = DOF_TFA2), m/s
         21    5.677E-06                                 F               2         First time derivative of 2nd tower side-to-side bending mode DOF (internal DOF index = DOF_TSS2), m/s
         22    1.040E+00                                 F               2         First time derivative of Variable speed generator DOF (internal DOF index = DOF_GeAz), rad/s

Order of continuous state derivatives:
   Row/Column Operating Point                     Rotating Frame? Derivative Order Description
   ---------- ---------------                     --------------- ---------------- -----------
          1   -1.300E-03                                 F               2         First time derivative of Platform horizontal surge translation DOF (internal DOF index = DOF_Sg), m/s
          2   -6.313E-04                                 F               2         First time derivative of Platform horizontal sway translation DOF (internal DOF index = DOF_Sw), m/s
          3    2.411E-04                                 F               2         First time derivative of Platform vertical heave translation DOF (internal DOF index = DOF_Hv), m/s
          4    1.693E-03                                 F               2         First time derivative of Platform roll tilt rotation DOF (internal DOF index = DOF_R), rad/s
          5   -7.214E-05                                 F               2         First time derivative of Platform pitch tilt rotation DOF (internal DOF index = DOF_P), rad/s
          6   -3.177E-04                                 F               2         First time derivative of Platform yaw rotation DOF (internal DOF index = DOF_Y), rad/s
          7    1.569E-03                                 F               2         First time derivative of 1st tower fore-aft bending mode DOF (internal DOF index = DOF_TFA1), m/s
          8    8.712E-03                                 F               2         First time derivative of 1st tower side-to-side bending mode DOF (internal DOF index = DOF_TSS1), m/s
          9    1.107E-05                                 F               2         First time derivative of 2nd tower fore-aft bending mode DOF (internal DOF index = DOF_TFA2), m/s
         10    5.677E-06                                 F               2         First time derivative of 2nd tower side-to-side bending mode DOF (internal DOF index = DOF_TSS2), m/s
         11    1.040E+00                                 F               2         First time derivative of Variable speed generator DOF (internal DOF index = DOF_GeAz), rad/s
         12   -3.056E-05                                 F               2         First time derivative of First time derivative of Platform horizontal surge translation DOF (internal DOF index = DOF_Sg), m/s/s
         13   -6.814E-05                                 F               2         First time derivative of First time derivative of Platform horizontal sway translation DOF (internal DOF index = DOF_Sw), m/s/s
         14    1.342E-03                                 F               2         First time derivative of First time derivative of Platform vertical heave translation DOF (internal DOF index = DOF_Hv), m/s/s
         15   -2.459E-04                                 F               2         First time derivative of First time derivative of Platform roll tilt rotation DOF (internal DOF index = DOF_R), rad/s/s
         16   -2.656E-05                                 F               2         First time derivative of First time derivative of Platform pitch tilt rotation DOF (internal DOF index = DOF_P), rad/s/s
         17    1.403E-04                                 F               2         First time derivative of First time derivative of Platform yaw rotation DOF (internal DOF index = DOF_Y), rad/s/s
         18    3.305E-04                                 F               2         First time derivative of First time derivative of 1st tower fore-aft bending mode DOF (internal DOF index = DOF_TFA1), m/s/s
         19   -1.063E-04                                 F               2         First time derivative of First time derivative of 1st tower side-to-side bending mode DOF (internal DOF index = DOF_TSS1), m/s/s
         20    6.200E-07                                 F               2         First time derivative of First time derivative of 2nd tower fore-aft bending mode DOF (internal DOF index = DOF_TFA2), m/s/s
         21    6.342E-06                                 F               2         First time derivative of First time derivative of 2nd tower side-to-side bending mode DOF (internal DOF index = DOF_TSS2), m/s/s
         22    3.846E-04                                 F               2         First time derivative of First time derivative of Variable speed generator DOF (internal DOF index = DOF_GeAz), rad/s/s

Order of inputs:
     Column   Operating Point                     Rotating Frame? Derivative Order Description
   ---------- ---------------                     --------------- ---------------- -----------
          1    8.001E+01                                 F               0         Blade 1 X force, node 1, N
          2   -2.033E+01                                 F               0         Blade 1 Y force, node 1, N
          3   -6.493E+01                                 F               0         Blade 1 Z force, node 1, N
          4    3.834E+02                                 F               0         Blade 1 X force, node 2, N
          5   -3.757E+01                                 F               0         Blade 1 Y force, node 2, N
          6   -1.951E+02                                 F               0         Blade 1 Z force, node 2, N
          7    5.620E+02                                 F               0         Blade 1 X force, node 3, N
          8    5.591E+00                                 F               0         Blade 1 Y force, node 3, N
          9   -1.685E+02                                 F               0         Blade 1 Z force, node 3, N
         10    7.819E+02                                 F               0         Blade 1 X force, node 4, N
         11    4.485E+01                                 F               0         Blade 1 Y force, node 4, N
         12   -1.625E+02                                 F               0         Blade 1 Z force, node 4, N
         13    1.002E+03                                 F               0         Blade 1 X force, node 5, N
         14    8.410E+01                                 F               0         Blade 1 Y force, node 5, N
         15   -1.566E+02                                 F               0         Blade 1 Z force, node 5, N
         16    1.222E+03                                 F               0         Blade 1 X force, node 6, N
         17    1.234E+02                                 F               0         Blade 1 Y force, node 6, N
         18   -1.507E+02                                 F               0         Blade 1 Z force, node 6, N
         19    1.442E+03                                 F               0         Blade 1 X force, node 7, N
         20    1.626E+02                                 F               0         Blade 1 Y force, node 7, N
         21   -1.448E+02                                 F               0         Blade 1 Z force, node 7, N
         22    1.661E+03                                 F               0         Blade 1 X force, node 8, N
         23    2.019E+02                                 F               0         Blade 1 Y force, node 8, N
         24   -1.389E+02                                 F               0         Blade 1 Z force, node 8, N
         25    1.881E+03                                 F               0         Blade 1 X force, node 9, N
         26    2.411E+02                                 F               0         Blade 1 Y force, node 9, N
         27   -1.330E+02                                 F               0         Blade 1 Z force, node 9, N
         28    2.101E+03                                 F               0         Blade 1 X force, node 10, N
         29    2.804E+02                                 F               0         Blade 1 Y force, node 10, N
         30   -1.271E+02                                 F               0         Blade 1 Z force, node 10, N
         31    2.321E+03                                 F               0         Blade 1 X force, node 11, N
         32    3.196E+02                                 F               0         Blade 1 Y force, node 11, N
         33   -1.212E+02                                 F               0         Blade 1 Z force, node 11, N
         34    2.541E+03                                 F               0         Blade 1 X force, node 12, N
         35    3.589E+02                                 F               0         Blade 1 Y force, node 12, N
         36   -1.153E+02                                 F               0         Blade 1 Z force, node 12, N
         37    2.761E+03                                 F               0         Blade 1 X force, node 13, N
         38    3.981E+02                                 F               0         Blade 1 Y force, node 13, N
         39   -1.094E+02                                 F               0         Blade 1 Z force, node 13, N
         40    2.981E+03                                 F               0         Blade 1 X force, node 14, N
         41    4.374E+02                                 F               0         Blade 1 Y force, node 14, N
         42   -1.035E+02                                 F               0         Blade 1 Z force, node 14, N
         43    3.201E+03                                 F               0         Blade 1 X force, node 15, N
         44    4.766E+02                                 F               0         Blade 1 Y force, node 15, N
         45   -9.755E+01                                 F               0         Blade 1 Z force, node 15, N
         46    3.421E+03                                 F               0         Blade 1 X force, node 16, N
         47    5.159E+02                                 F               0         Blade 1 Y force, node 16, N
         48   -9.164E+01                                 F               0         Blade 1 Z force, node 16, N
         49    4.221E+03                                 F               0         Blade 1 X force, node 17, N
         50    6.414E+02                                 F               0         Blade 1 Y force, node 17, N
         51   -1.036E+02                                 F               0         Blade 1 Z force, node 17, N
         52    3.220E+03                                 F               0         Blade 1 X force, node 18, N
         53    4.745E+02                                 F               0         Blade 1 Y force, node 18, N
         54   -1.078E+02                                 F               0         Blade 1 Z force, node 18, N
         55    3.944E+03                                 F               0         Blade 1 X force, node 19, N
         56    5.576E+02                                 F               0         Blade 1 Y force, node 19, N
         57   -1.777E+02                                 F               0         Blade 1 Z force, node 19, N
         58    3.356E+03                                 F               0         Blade 1 X force, node 20, N
         59    4.559E+02                                 F               0         Blade 1 Y force, node 20, N
         60   -1.872E+02                                 F               0         Blade 1 Z force, node 20, N
         61    4.947E+03                                 F               0         Blade 1 X force, node 21, N
         62    6.416E+02                                 F               0         Blade 1 Y force, node 21, N
         63   -3.349E+02                                 F               0         Blade 1 Z force, node 21, N
         64    4.358E+03                                 F               0         Blade 1 X force, node 22, N
         65    5.400E+02                                 F               0         Blade 1 Y force, node 22, N
         66   -3.440E+02                                 F               0         Blade 1 Z force, node 22, N
         67    4.469E+03                                 F               0         Blade 1 X force, node 23, N
         68    5.311E+02                                 F               0         Blade 1 Y force, node 23, N
         69   -3.967E+02                                 F               0         Blade 1 Z force, node 23, N
         70    4.660E+03                                 F               0         Blade 1 X force, node 24, N
         71    5.315E+02                                 F               0         Blade 1 Y force, node 24, N
         72   -4.569E+02                                 F               0         Blade 1 Z force, node 24, N
         73    4.770E+03                                 F               0         Blade 1 X force, node 25, N
         74    5.226E+02                                 F               0         Blade 1 Y force, node 25, N
         75   -5.092E+02                                 F               0         Blade 1 Z force, node 25, N
         76    4.907E+03                                 F               0         Blade 1 X force, node 26, N
         77    5.169E+02                                 F               0         Blade 1 Y force, node 26, N
         78   -5.639E+02                                 F               0         Blade 1 Z force, node 26, N
         79    5.874E+03                                 F               0         Blade 1 X force, node 27, N
         80    5.939E+02                                 F               0         Blade 1 Y force, node 27, N
         81   -7.231E+02                                 F               0         Blade 1 Z force, node 27, N
         82    4.351E+03                                 F               0         Blade 1 X force, node 28, N
         83    4.230E+02                                 F               0         Blade 1 Y force, node 28, N
         84   -5.685E+02                                 F               0         Blade 1 Z force, node 28, N
         85    5.319E+03                                 F               0         Blade 1 X force, node 29, N
         86    5.004E+02                                 F               0         Blade 1 Y force, node 29, N
         87   -7.274E+02                                 F               0         Blade 1 Z force, node 29, N
         88    4.523E+03                                 F               0         Blade 1 X force, node 30, N
         89    4.119E+02                                 F               0         Blade 1 Y force, node 30, N
         90   -6.447E+02                                 F               0         Blade 1 Z force, node 30, N
         91    6.529E+03                                 F               0         Blade 1 X force, node 31, N
         92    5.728E+02                                 F               0         Blade 1 Y force, node 31, N
         93   -9.732E+02                                 F               0         Blade 1 Z force, node 31, N
         94    5.731E+03                                 F               0         Blade 1 X force, node 32, N
         95    4.843E+02                                 F               0         Blade 1 Y force, node 32, N
         96   -8.901E+02                                 F               0         Blade 1 Z force, node 32, N
         97    5.867E+03                                 F               0         Blade 1 X force, node 33, N
         98    4.788E+02                                 F               0         Blade 1 Y force, node 33, N
         99   -9.440E+02                                 F               0         Blade 1 Z force, node 33, N
        100    6.004E+03                                 F               0         Blade 1 X force, node 34, N
        101    4.734E+02                                 F               0         Blade 1 Y force, node 34, N
        102   -9.981E+02                                 F               0         Blade 1 Z force, node 34, N
        103    6.141E+03                                 F               0         Blade 1 X force, node 35, N
        104    4.681E+02                                 F               0         Blade 1 Y force, node 35, N
        105   -1.052E+03                                 F               0         Blade 1 Z force, node 35, N
        106    6.276E+03                                 F               0         Blade 1 X force, node 36, N
        107    4.627E+02                                 F               0         Blade 1 Y force, node 36, N
        108   -1.106E+03                                 F               0         Blade 1 Z force, node 36, N
        109    7.501E+03                                 F               0         Blade 1 X force, node 37, N
        110    5.339E+02                                 F               0         Blade 1 Y force, node 37, N
        111   -1.358E+03                                 F               0         Blade 1 Z force, node 37, N
        112    5.459E+03                                 F               0         Blade 1 X force, node 38, N
        113    3.756E+02                                 F               0         Blade 1 Y force, node 38, N
        114   -1.014E+03                                 F               0         Blade 1 Z force, node 38, N
        115    6.686E+03                                 F               0         Blade 1 X force, node 39, N
        116    4.471E+02                                 F               0         Blade 1 Y force, node 39, N
        117   -1.267E+03                                 F               0         Blade 1 Z force, node 39, N
        118    5.698E+03                                 F               0         Blade 1 X force, node 40, N
        119    3.703E+02                                 F               0         Blade 1 Y force, node 40, N
        120   -1.100E+03                                 F               0         Blade 1 Z force, node 40, N
        121    8.087E+03                                 F               0         Blade 1 X force, node 41, N
        122    5.085E+02                                 F               0         Blade 1 Y force, node 41, N
        123   -1.595E+03                                 F               0         Blade 1 Z force, node 41, N
        124    7.097E+03                                 F               0         Blade 1 X force, node 42, N
        125    4.317E+02                                 F               0         Blade 1 Y force, node 42, N
        126   -1.428E+03                                 F               0         Blade 1 Z force, node 42, N
        127    7.233E+03                                 F               0         Blade 1 X force, node 43, N
        128    4.265E+02                                 F               0         Blade 1 Y force, node 43, N
        129   -1.481E+03                                 F               0         Blade 1 Z force, node 43, N
        130    7.407E+03                                 F               0         Blade 1 X force, node 44, N
        131    4.236E+02                                 F               0         Blade 1 Y force, node 44, N
        132   -1.542E+03                                 F               0         Blade 1 Z force, node 44, N
        133    7.466E+03                                 F               0         Blade 1 X force, node 45, N
        134    4.141E+02                                 F               0         Blade 1 Y force, node 45, N
        135   -1.579E+03                                 F               0         Blade 1 Z force, node 45, N
        136    7.641E+03                                 F               0         Blade 1 X force, node 46, N
        137    4.113E+02                                 F               0         Blade 1 Y force, node 46, N
        138   -1.641E+03                                 F               0         Blade 1 Z force, node 46, N
        139    9.142E+03                                 F               0         Blade 1 X force, node 47, N
        140    4.767E+02                                 F               0         Blade 1 Y force, node 47, N
        141   -1.993E+03                                 F               0         Blade 1 Z force, node 47, N
        142    6.550E+03                                 F               0         Blade 1 X force, node 48, N
        143    3.310E+02                                 F               0         Blade 1 Y force, node 48, N
        144   -1.448E+03                                 F               0         Blade 1 Z force, node 48, N
        145    8.050E+03                                 F               0         Blade 1 X force, node 49, N
        146    3.964E+02                                 F               0         Blade 1 Y force, node 49, N
        147   -1.800E+03                                 F               0         Blade 1 Z force, node 49, N
        148    6.885E+03                                 F               0         Blade 1 X force, node 50, N
        149    3.302E+02                                 F               0         Blade 1 Y force, node 50, N
        150   -1.557E+03                                 F               0         Blade 1 Z force, node 50, N
        151    9.625E+03                                 F               0         Blade 1 X force, node 51, N
        152    4.477E+02                                 F               0         Blade 1 Y force, node 51, N
        153   -2.203E+03                                 F               0         Blade 1 Z force, node 51, N
        154    8.462E+03                                 F               0         Blade 1 X force, node 52, N
        155    3.818E+02                                 F               0         Blade 1 Y force, node 52, N
        156   -1.960E+03                                 F               0         Blade 1 Z force, node 52, N
        157    8.601E+03                                 F               0         Blade 1 X force, node 53, N
        158    3.770E+02                                 F               0         Blade 1 Y force, node 53, N
        159   -2.013E+03                                 F               0         Blade 1 Z force, node 53, N
        160    8.836E+03                                 F               0         Blade 1 X force, node 54, N
        161    3.763E+02                                 F               0         Blade 1 Y force, node 54, N
        162   -2.090E+03                                 F               0         Blade 1 Z force, node 54, N
        163    8.782E+03                                 F               0         Blade 1 X force, node 55, N
        164    3.635E+02                                 F               0         Blade 1 Y force, node 55, N
        165   -2.097E+03                                 F               0         Blade 1 Z force, node 55, N
        166    9.016E+03                                 F               0         Blade 1 X force, node 56, N
        167    3.628E+02                                 F               0         Blade 1 Y force, node 56, N
        168   -2.173E+03                                 F               0         Blade 1 Z force, node 56, N
        169    1.081E+04                                 F               0         Blade 1 X force, node 57, N
        170    4.221E+02                                 F               0         Blade 1 Y force, node 57, N
        171   -2.631E+03                                 F               0         Blade 1 Z force, node 57, N
        172    7.637E+03                                 F               0         Blade 1 X force, node 58, N
        173    2.894E+02                                 F               0         Blade 1 Y force, node 58, N
        174   -1.876E+03                                 F               0         Blade 1 Z force, node 58, N
        175    9.432E+03                                 F               0         Blade 1 X force, node 59, N
        176    3.487E+02                                 F               0         Blade 1 Y force, node 59, N
        177   -2.333E+03                                 F               0         Blade 1 Z force, node 59, N
        178    8.106E+03                                 F               0         Blade 1 X force, node 60, N
        179    2.922E+02                                 F               0         Blade 1 Y force, node 60, N
        180   -2.020E+03                                 F               0         Blade 1 Z force, node 60, N
        181    1.117E+04                                 F               0         Blade 1 X force, node 61, N
        182    3.912E+02                                 F               0         Blade 1 Y force, node 61, N
        183   -2.807E+03                                 F               0         Blade 1 Z force, node 61, N
        184    9.845E+03                                 F               0         Blade 1 X force, node 62, N