
Linearized model: Predictions were generated on 13-Feb-2024 at 11:29:37 using OpenFAST, compiled as a 64-bit application using single precision at commit v3.5.1
 linked with  NWTC Subroutine Library; ElastoDyn; InflowWind; AeroDyn; ServoDyn; HydroDyn; MAP++ (<1.20.10>, <Oct-20-2023>)

Description from the FAST input file: CCT-9 Campign 4 model. Input files to be run with OpenFAST 3.5.0. GitHub branch from Lu Wang (https://github.com/luwang00/openfast/tree/dev) compiled on March 7, 2023.

Simulation information:
   Simulation time:                  1213.9250 s
   Rotor Speed:                         0.7917 rad/s
   Azimuth:                             2.4539 rad
   Wind Speed:                         16.0000 m/s
   Number of continuous states:        14
   Number of discrete states:           0
   Number of constraint states:         0
   Number of inputs:                 1890
   Number of outputs:                  25
   Jacobians included in this file?    No

Order of continuous states:
   Row/Column Operating Point                                                   Rotating Frame? Derivative Order Description
   ---------- ---------------                                                   --------------- ---------------- -----------
          1     8.64549636841E+000                                                     F               2         Platform horizontal surge translation DOF (internal DOF index = DOF_Sg), m
          2    -6.18368387222E-001                                                     F               2         Platform horizontal sway translation DOF (internal DOF index = DOF_Sw), m
          3    -1.31466820836E-001                                                     F               2         Platform vertical heave translation DOF (internal DOF index = DOF_Hv), m
          4     5.16529455781E-002                                                     F               2         Platform roll tilt rotation DOF (internal DOF index = DOF_R), rad
          5     1.13035321236E-001                                                     F               2         Platform pitch tilt rotation DOF (internal DOF index = DOF_P), rad
          6     5.21754962392E-004                                                     F               2         Platform yaw rotation DOF (internal DOF index = DOF_Y), rad
          7     8.83121073246E-001                                                     F               2         Variable speed generator DOF (internal DOF index = DOF_GeAz), rad
          8     1.68839236721E-004                                                     F               2         First time derivative of Platform horizontal surge translation DOF (internal DOF index = DOF_Sg), m/s
          9     1.70599651028E-005                                                     F               2         First time derivative of Platform horizontal sway translation DOF (internal DOF index = DOF_Sw), m/s
         10    -3.02433012985E-003                                                     F               2         First time derivative of Platform vertical heave translation DOF (internal DOF index = DOF_Hv), m/s
         11     1.06331435745E-005                                                     F               2         First time derivative of Platform roll tilt rotation DOF (internal DOF index = DOF_R), rad/s
         12     1.32639415824E-005                                                     F               2         First time derivative of Platform pitch tilt rotation DOF (internal DOF index = DOF_P), rad/s
         13    -1.78101822712E-006                                                     F               2         First time derivative of Platform yaw rotation DOF (internal DOF index = DOF_Y), rad/s
         14     7.91708648205E-001                                                     F               2         First time derivative of Variable speed generator DOF (internal DOF index = DOF_GeAz), rad/s

Order of continuous state derivatives:
   Row/Column Operating Point                                                   Rotating Frame? Derivative Order Description
   ---------- ---------------                                                   --------------- ---------------- -----------
          1     1.68839236721E-004                                                     F               2         First time derivative of Platform horizontal surge translation DOF (internal DOF index = DOF_Sg), m/s
          2     1.70599651028E-005                                                     F               2         First time derivative of Platform horizontal sway translation DOF (internal DOF index = DOF_Sw), m/s
          3    -3.02433012985E-003                                                     F               2         First time derivative of Platform vertical heave translation DOF (internal DOF index = DOF_Hv), m/s
          4     1.06331435745E-005                                                     F               2         First time derivative of Platform roll tilt rotation DOF (internal DOF index = DOF_R), rad/s
          5     1.32639415824E-005                                                     F               2         First time derivative of Platform pitch tilt rotation DOF (internal DOF index = DOF_P), rad/s
          6    -1.78101822712E-006                                                     F               2         First time derivative of Platform yaw rotation DOF (internal DOF index = DOF_Y), rad/s
          7     7.91708648205E-001                                                     F               2         First time derivative of Variable speed generator DOF (internal DOF index = DOF_GeAz), rad/s
          8    -8.96404671948E-005                                                     F               2         First time derivative of First time derivative of Platform horizontal surge translation DOF (internal DOF index = DOF_Sg), m/s/s
          9    -5.04713563714E-004                                                     F               2         First time derivative of First time derivative of Platform horizontal sway translation DOF (internal DOF index = DOF_Sw), m/s/s
         10    -2.21049087122E-003                                                     F               2         First time derivative of First time derivative of Platform vertical heave translation DOF (internal DOF index = DOF_Hv), m/s/s
         11     4.20068172389E-005                                                     F               2         First time derivative of First time derivative of Platform roll tilt rotation DOF (internal DOF index = DOF_R), rad/s/s
         12    -5.66521566725E-006                                                     F               2         First time derivative of First time derivative of Platform pitch tilt rotation DOF (internal DOF index = DOF_P), rad/s/s
         13     1.66563331732E-005                                                     F               2         First time derivative of First time derivative of Platform yaw rotation DOF (internal DOF index = DOF_Y), rad/s/s
         14     3.99078380724E-005                                                     F               2         First time derivative of First time derivative of Variable speed generator DOF (internal DOF index = DOF_GeAz), rad/s/s

Order of inputs:
     Column   Operating Point                                                   Rotating Frame? Derivative Order Description
   ---------- ---------------                                                   --------------- ---------------- -----------
          1     1.93673355103E+002                                                     F               0         Blade 1 X force, node 1, N
          2    -1.16347183228E+002                                                     F               0         Blade 1 Y force, node 1, N
          3     4.66489753723E+001                                                     F               0         Blade 1 Z force, node 1, N
          4     7.69324829102E+002                                                     F               0         Blade 1 X force, node 2, N
          5    -1.87742172241E+002                                                     F               0         Blade 1 Y force, node 2, N
          6    -2.23360652924E+001                                                     F               0         Blade 1 Z force, node 2, N
          7     9.50067199707E+002                                                     F               0         Blade 1 X force, node 3, N
          8    -1.34269094467E+001                                                     F               0         Blade 1 Y force, node 3, N
          9    -1.92851455688E+002                                                     F               0         Blade 1 Z force, node 3, N
         10     1.21286254883E+003                                                     F               0         Blade 1 X force, node 4, N
         11     1.38599105835E+002                                                     F               0         Blade 1 Y force, node 4, N
         12    -3.64035034180E+002                                                     F               0         Blade 1 Z force, node 4, N
         13     1.47566882324E+003                                                     F               0         Blade 1 X force, node 5, N
         14     2.90627716064E+002                                                     F               0         Blade 1 Y force, node 5, N
         15    -5.35222900391E+002                                                     F               0         Blade 1 Z force, node 5, N
         16     1.73846716309E+003                                                     F               0         Blade 1 X force, node 6, N
         17     4.42655395508E+002                                                     F               0         Blade 1 Y force, node 6, N
         18    -7.06408325195E+002                                                     F               0         Blade 1 Z force, node 6, N
         19     2.00125183105E+003                                                     F               0         Blade 1 X force, node 7, N
         20     5.94679138184E+002                                                     F               0         Blade 1 Y force, node 7, N
         21    -8.77587768555E+002                                                     F               0         Blade 1 Z force, node 7, N
         22     2.26404736328E+003                                                     F               0         Blade 1 X force, node 8, N
         23     7.46705078125E+002                                                     F               0         Blade 1 Y force, node 8, N
         24    -1.04877136230E+003                                                     F               0         Blade 1 Z force, node 8, N
         25     2.52684277344E+003                                                     F               0         Blade 1 X force, node 9, N
         26     8.98731201172E+002                                                     F               0         Blade 1 Y force, node 9, N
         27    -1.21995495605E+003                                                     F               0         Blade 1 Z force, node 9, N
         28     2.78963793945E+003                                                     F               0         Blade 1 X force, node 10, N
         29     1.05075720215E+003                                                     F               0         Blade 1 Y force, node 10, N
         30    -1.39113842773E+003                                                     F               0         Blade 1 Z force, node 10, N
         31     3.05243383789E+003                                                     F               0         Blade 1 X force, node 11, N
         32     1.20278320312E+003                                                     F               0         Blade 1 Y force, node 11, N
         33    -1.56232202148E+003                                                     F               0         Blade 1 Z force, node 11, N
         34     3.31525195312E+003                                                     F               0         Blade 1 X force, node 12, N
         35     1.35481896973E+003                                                     F               0         Blade 1 Y force, node 12, N
         36    -1.73351794434E+003                                                     F               0         Blade 1 Z force, node 12, N
         37     3.57805004883E+003                                                     F               0         Blade 1 X force, node 13, N
         38     1.50684655762E+003                                                     F               0         Blade 1 Y force, node 13, N
         39    -1.90470312500E+003                                                     F               0         Blade 1 Z force, node 13, N
         40     3.84082324219E+003                                                     F               0         Blade 1 X force, node 14, N
         41     1.65886328125E+003                                                     F               0         Blade 1 Y force, node 14, N
         42    -2.07587500000E+003                                                     F               0         Blade 1 Z force, node 14, N
         43     4.10364550781E+003                                                     F               0         Blade 1 X force, node 15, N
         44     1.81090148926E+003                                                     F               0         Blade 1 Y force, node 15, N
         45    -2.24707373047E+003                                                     F               0         Blade 1 Z force, node 15, N
         46     4.36641259766E+003                                                     F               0         Blade 1 X force, node 16, N
         47     1.96291479492E+003                                                     F               0         Blade 1 Y force, node 16, N
         48    -2.41824145508E+003                                                     F               0         Blade 1 Z force, node 16, N
         49     5.36369189453E+003                                                     F               0         Blade 1 X force, node 17, N
         50     2.44446459961E+003                                                     F               0         Blade 1 Y force, node 17, N
         51    -2.99570141602E+003                                                     F               0         Blade 1 Z force, node 17, N
         52     4.06151245117E+003                                                     F               0         Blade 1 X force, node 18, N
         53     1.81536499023E+003                                                     F               0         Blade 1 Y force, node 18, N
         54    -2.24144775391E+003                                                     F               0         Blade 1 Z force, node 18, N
         55     4.93763281250E+003                                                     F               0         Blade 1 X force, node 19, N
         56     2.14277709961E+003                                                     F               0         Blade 1 Y force, node 19, N
         57    -2.67639160156E+003                                                     F               0         Blade 1 Z force, node 19, N
         58     4.17326074219E+003                                                     F               0         Blade 1 X force, node 20, N
         59     1.76005126953E+003                                                     F               0         Blade 1 Y force, node 20, N
         60    -2.22347338867E+003                                                     F               0         Blade 1 Z force, node 20, N
         61     6.09351513672E+003                                                     F               0         Blade 1 X force, node 21, N
         62     2.48634155273E+003                                                     F               0         Blade 1 Y force, node 21, N
         63    -3.18333666992E+003                                                     F               0         Blade 1 Z force, node 21, N
         64     5.30467871094E+003                                                     F               0         Blade 1 X force, node 22, N
         65     2.09480859375E+003                                                     F               0         Blade 1 Y force, node 22, N
         66    -2.71852734375E+003                                                     F               0         Blade 1 Z force, node 22, N
         67     5.38087744141E+003                                                     F               0         Blade 1 X force, node 23, N
         68     2.06170849609E+003                                                     F               0         Blade 1 Y force, node 23, N
         69    -2.70976416016E+003                                                     F               0         Blade 1 Z force, node 23, N
         70     5.54929980469E+003                                                     F               0         Blade 1 X force, node 24, N
         71     2.06368750000E+003                                                     F               0         Blade 1 Y force, node 24, N
         72    -2.74725024414E+003                                                     F               0         Blade 1 Z force, node 24, N
         73     5.60797167969E+003                                                     F               0         Blade 1 X force, node 25, N
         74     2.02616210938E+003                                                     F               0         Blade 1 Y force, node 25, N
         75    -2.73139428711E+003                                                     F               0         Blade 1 Z force, node 25, N
         76     5.69518310547E+003                                                     F               0         Blade 1 X force, node 26, N
         77     1.99976953125E+003                                                     F               0         Blade 1 Y force, node 26, N
         78    -2.73005981445E+003                                                     F               0         Blade 1 Z force, node 26, N
         79     6.72786816406E+003                                                     F               0         Blade 1 X force, node 27, N
         80     2.29223168945E+003                                                     F               0         Blade 1 Y force, node 27, N
         81    -3.17201318359E+003                                                     F               0         Blade 1 Z force, node 27, N
         82     4.91307812500E+003                                                     F               0         Blade 1 X force, node 28, N
         83     1.62652233887E+003                                                     F               0         Blade 1 Y force, node 28, N
         84    -2.28052465820E+003                                                     F               0         Blade 1 Z force, node 28, N
         85     5.93177294922E+003                                                     F               0         Blade 1 X force, node 29, N
         86     1.91700170898E+003                                                     F               0         Blade 1 Y force, node 29, N
         87    -2.71798876953E+003                                                     F               0         Blade 1 Z force, node 29, N
         88     4.98317138672E+003                                                     F               0         Blade 1 X force, node 30, N
         89     1.57216906738E+003                                                     F               0         Blade 1 Y force, node 30, N
         90    -2.25437597656E+003                                                     F               0         Blade 1 Z force, node 30, N
         91     7.09036181641E+003                                                     F               0         Blade 1 X force, node 31, N
         92     2.17551660156E+003                                                     F               0         Blade 1 Y force, node 31, N
         93    -3.16115966797E+003                                                     F               0         Blade 1 Z force, node 31, N
         94     6.12569921875E+003                                                     F               0         Blade 1 X force, node 32, N
         95     1.82905908203E+003                                                     F               0         Blade 1 Y force, node 32, N
         96    -2.69288549805E+003                                                     F               0         Blade 1 Z force, node 32, N
         97     6.18005615234E+003                                                     F               0         Blade 1 X force, node 33, N
         98     1.79854309082E+003                                                     F               0         Blade 1 Y force, node 33, N
         99    -2.68141113281E+003                                                     F               0         Blade 1 Z force, node 33, N
        100     6.23252978516E+003                                                     F               0         Blade 1 X force, node 34, N
        101     1.76798376465E+003                                                     F               0         Blade 1 Y force, node 34, N
        102    -2.66950122070E+003                                                     F               0         Blade 1 Z force, node 34, N
        103     6.27111914062E+003                                                     F               0         Blade 1 X force, node 35, N
        104     1.73541223145E+003                                                     F               0         Blade 1 Y force, node 35, N
        105    -2.65310156250E+003                                                     F               0         Blade 1 Z force, node 35, N
        106     6.30457031250E+003                                                     F               0         Blade 1 X force, node 36, N
        107     1.70187475586E+003                                                     F               0         Blade 1 Y force, node 36, N
        108    -2.63487329102E+003                                                     F               0         Blade 1 Z force, node 36, N
        109     7.40781054688E+003                                                     F               0         Blade 1 X force, node 37, N
        110     1.94701318359E+003                                                     F               0         Blade 1 Y force, node 37, N
        111    -3.05609643555E+003                                                     F               0         Blade 1 Z force, node 37, N
        112     5.29773876953E+003                                                     F               0         Blade 1 X force, node 38, N
        113     1.35744030762E+003                                                     F               0         Blade 1 Y force, node 38, N
        114    -2.15911987305E+003                                                     F               0         Blade 1 Z force, node 38, N
        115     6.39257177734E+003                                                     F               0         Blade 1 X force, node 39, N
        116     1.60340344238E+003                                                     F               0         Blade 1 Y force, node 39, N
        117    -2.57917041016E+003                                                     F               0         Blade 1 Z force, node 39, N
        118     5.36817431641E+003                                                     F               0         Blade 1 X force, node 40, N
        119     1.31752685547E+003                                                     F               0         Blade 1 Y force, node 40, N
        120    -2.14397045898E+003                                                     F               0         Blade 1 Z force, node 40, N
        121     7.48789550781E+003                                                     F               0         Blade 1 X force, node 41, N
        122     1.79190039062E+003                                                     F               0         Blade 1 Y force, node 41, N
        123    -2.95584472656E+003                                                     F               0         Blade 1 Z force, node 41, N
        124     6.45142431641E+003                                                     F               0         Blade 1 X force, node 42, N
        125     1.50601025391E+003                                                     F               0         Blade 1 Y force, node 42, N
        126    -2.51805493164E+003                                                     F               0         Blade 1 Z force, node 42, N
        127     6.46382861328E+003                                                     F               0         Blade 1 X force, node 43, N
        128     1.47352038574E+003                                                     F               0         Blade 1 Y force, node 43, N
        129    -2.49612182617E+003                                                     F               0         Blade 1 Z force, node 43, N
        130     6.50777343750E+003                                                     F               0         Blade 1 X force, node 44, N
        131     1.44840124512E+003                                                     F               0         Blade 1 Y force, node 44, N
        132    -2.48650610352E+003                                                     F               0         Blade 1 Z force, node 44, N
        133     6.43900292969E+003                                                     F               0         Blade 1 X force, node 45, N
        134     1.40007312012E+003                                                     F               0         Blade 1 Y force, node 45, N
        135    -2.43524414062E+003                                                     F               0         Blade 1 Z force, node 45, N
        136     6.46979785156E+003                                                     F               0         Blade 1 X force, node 46, N
        137     1.37416223145E+003                                                     F               0         Blade 1 Y force, node 46, N
        138    -2.42221899414E+003                                                     F               0         Blade 1 Z force, node 46, N
        139     7.59104736328E+003                                                     F               0         Blade 1 X force, node 47, N
        140     1.57150891113E+003                                                     F               0         Blade 1 Y force, node 47, N
        141    -2.81112841797E+003                                                     F               0         Blade 1 Z force, node 47, N
        142     5.33313134766E+003                                                     F               0         Blade 1 X force, node 48, N
        143     1.07724340820E+003                                                     F               0         Blade 1 Y force, node 48, N
        144    -1.95467395020E+003                                                     F               0         Blade 1 Z force, node 48, N
        145     6.44678710938E+003                                                     F               0         Blade 1 X force, node 49, N
        146     1.27555041504E+003                                                     F               0         Blade 1 Y force, node 49, N
        147    -2.34268774414E+003                                                     F               0         Blade 1 Z force, node 49, N
        148     5.42285205078E+003                                                     F               0         Blade 1 X force, node 50, N
        149     1.05019702148E+003                                                     F               0         Blade 1 Y force, node 50, N
        150    -1.95338098145E+003                                                     F               0         Blade 1 Z force, node 50, N
        151     7.43550830078E+003                                                     F               0         Blade 1 X force, node 51, N
        152     1.40432482910E+003                                                     F               0         Blade 1 Y force, node 51, N
        153    -2.65139404297E+003                                                     F               0         Blade 1 Z force, node 51, N
        154     6.40784619141E+003                                                     F               0         Blade 1 X force, node 52, N
        155     1.18060180664E+003                                                     F               0         Blade 1 Y force, node 52, N
        156    -2.26252490234E+003                                                     F               0         Blade 1 Z force, node 52, N
        157     6.39250390625E+003                                                     F               0         Blade 1 X force, node 53, N
        158     1.14989990234E+003                                                     F               0         Blade 1 Y force, node 53, N