
Linearized model: Predictions were generated on 13-Feb-2024 at 12:12:09 using OpenFAST, compiled as a 64-bit application using single precision at commit v3.5.1
 linked with  NWTC Subroutine Library; ElastoDyn; InflowWind; AeroDyn; ServoDyn; HydroDyn; MAP++ (<1.20.10>, <Oct-20-2023>)

Description from the FAST input file: CCT-9 Campign 4 model. Input files to be run with OpenFAST 3.5.0. GitHub branch from Lu Wang (https://github.com/luwang00/openfast/tree/dev) compiled on March 7, 2023.

Simulation information:
   Simulation time:                   776.4000 s
   Rotor Speed:                         0.7922 rad/s
   Azimuth:                             4.7232 rad
   Wind Speed:                         24.0000 m/s
   Number of continuous states:         0
   Number of discrete states:           0
   Number of constraint states:         0
   Number of inputs:                   37
   Number of outputs:                   7
   Jacobians included in this file?    No

Order of inputs:
     Column   Operating Point                                                   Rotating Frame? Derivative Order Description
   ---------- ---------------                                                   --------------- ---------------- -----------
          1     6.82285737991E+000                                                     F               0         WAMIT X translation displacement, node 1, m
          2    -8.23624193668E-001                                                     F               0         WAMIT Y translation displacement, node 1, m
          3    -1.13950617611E-001                                                     F               0         WAMIT Z translation displacement, node 1, m
          4     9.95476007462E-001,  -6.67557911947E-003,  -9.47785079479E-002         F               0         WAMIT X orientation angle, node 1, rad
          5     1.18005899712E-002,   9.98491883278E-001,   5.36165088415E-002         F               0         WAMIT Y orientation angle, node 1, rad
          6     9.42776501179E-002,  -5.44923879206E-002,   9.94053483009E-001         F               0         WAMIT Z orientation angle, node 1, rad
          7     2.72008683532E-003                                                     F               0         WAMIT X translation velocity, node 1, m/s
          8    -4.33262233855E-004                                                     F               0         WAMIT Y translation velocity, node 1, m/s
          9    -4.66578034684E-003                                                     F               0         WAMIT Z translation velocity, node 1, m/s
         10     9.57170268521E-005                                                     F               0         WAMIT X rotation velocity, node 1, rad/s
         11     8.75149053172E-005                                                     F               0         WAMIT Y rotation velocity, node 1, rad/s
         12     2.08538222068E-005                                                     F               0         WAMIT Z rotation velocity, node 1, rad/s
         13     9.09195374697E-003                                                     F               0         WAMIT X translation acceleration, node 1, m/s^2
         14     7.83189083450E-004                                                     F               0         WAMIT Y translation acceleration, node 1, m/s^2
         15    -1.27597118262E-003                                                     F               0         WAMIT Z translation acceleration, node 1, m/s^2
         16    -3.39063772117E-005                                                     F               0         WAMIT X rotation acceleration, node 1, rad/s^2
         17     5.16546133440E-004                                                     F               0         WAMIT Y rotation acceleration, node 1, rad/s^2
         18     4.32786764577E-005                                                     F               0         WAMIT Z rotation acceleration, node 1, rad/s^2
         19     6.82285737991E+000                                                     F               0         Platform-RefPt X translation displacement, node 1, m
         20    -8.23624193668E-001                                                     F               0         Platform-RefPt Y translation displacement, node 1, m
         21    -1.13950617611E-001                                                     F               0         Platform-RefPt Z translation displacement, node 1, m
         22     9.95476007462E-001,  -6.67557911947E-003,  -9.47785079479E-002         F               0         Platform-RefPt X orientation angle, node 1, rad
         23     1.18005899712E-002,   9.98491883278E-001,   5.36165088415E-002         F               0         Platform-RefPt Y orientation angle, node 1, rad
         24     9.42776501179E-002,  -5.44923879206E-002,   9.94053483009E-001         F               0         Platform-RefPt Z orientation angle, node 1, rad
         25     2.72008683532E-003                                                     F               0         Platform-RefPt X translation velocity, node 1, m/s
         26    -4.33262233855E-004                                                     F               0         Platform-RefPt Y translation velocity, node 1, m/s
         27    -4.66578034684E-003                                                     F               0         Platform-RefPt Z translation velocity, node 1, m/s
         28     9.57170268521E-005                                                     F               0         Platform-RefPt X rotation velocity, node 1, rad/s
         29     8.75149053172E-005                                                     F               0         Platform-RefPt Y rotation velocity, node 1, rad/s
         30     2.08538222068E-005                                                     F               0         Platform-RefPt Z rotation velocity, node 1, rad/s
         31     9.09195374697E-003                                                     F               0         Platform-RefPt X translation acceleration, node 1, m/s^2
         32     7.83189083450E-004                                                     F               0         Platform-RefPt Y translation acceleration, node 1, m/s^2
         33    -1.27597118262E-003                                                     F               0         Platform-RefPt Z translation acceleration, node 1, m/s^2
         34    -3.39063772117E-005                                                     F               0         Platform-RefPt X rotation acceleration, node 1, rad/s^2
         35     5.16546133440E-004                                                     F               0         Platform-RefPt Y rotation acceleration, node 1, rad/s^2
         36     4.32786764577E-005                                                     F               0         Platform-RefPt Z rotation acceleration, node 1, rad/s^2
         37     0.00000000000E+000                                                     F               0         Extended input: wave elevation at platform ref point, m

Order of outputs:
        Row   Operating Point                                                   Rotating Frame? Derivative Order Description
   ---------- ---------------                                                   --------------- ---------------- -----------
          1     0.00000000000E+000                                                     F               0         Wave1Elev, (m)
          2    -8.17776250000E+004                                                     F               0         HydroFxi, (N)
          3    -3.94556982422E+003                                                     F               0         HydroFyi, (N)
          4     2.03866928000E+008                                                     F               0         HydroFzi, (N)
          5    -1.15779176000E+008                                                     F               0         HydroMxi, (N-m)
          6    -2.07917760000E+008                                                     F               0         HydroMyi, (N-m)
          7    -8.47919312500E+005                                                     F               0         HydroMzi, (N-m)


Linearized state matrices:

D: 7 x 37
     0.00000000000E+000   0.00000000000E+000   0.00000000000E+000   0.00000000000E+000   0.00000000000E+000   0.00000000000E+000   0.00000000000E+000   0.00000000000E+000   0.00000000000E+000   0.00000000000E+000   0.00000000000E+000   0.00000000000E+000   0.00000000000E+000   0.00000000000E+000   0.00000000000E+000   0.00000000000E+000   0.00000000000E+000   0.00000000000E+000   0.00000000000E+000   0.00000000000E+000   0.00000000000E+000   0.00000000000E+000   0.00000000000E+000   0.00000000000E+000   0.00000000000E+000   0.00000000000E+000   0.00000000000E+000   0.00000000000E+000   0.00000000000E+000   0.00000000000E+000   0.00000000000E+000   0.00000000000E+000   0.00000000000E+000   0.00000000000E+000   0.00000000000E+000   0.00000000000E+000   0.00000000000E+000
    -6.85998695922E+003   0.00000000000E+000   0.00000000000E+000   0.00000000000E+000   0.00000000000E+000   0.00000000000E+000  -2.82233589551E+005   0.00000000000E+000   0.00000000000E+000   0.00000000000E+000   0.00000000000E+000   0.00000000000E+000  -9.38083999245E+006   0.00000000000E+000   1.99512100047E+001   0.00000000000E+000   9.82680351759E+007   0.00000000000E+000   0.00000000000E+000   0.00000000000E+000   0.00000000000E+000   0.00000000000E+000   0.00000000000E+000   0.00000000000E+000   0.00000000000E+000   0.00000000000E+000   0.00000000000E+000   0.00000000000E+000   0.00000000000E+000   0.00000000000E+000   0.00000000000E+000   0.00000000000E+000   0.00000000000E+000   0.00000000000E+000   0.00000000000E+000   0.00000000000E+000   0.00000000000E+000
     0.00000000000E+000   0.00000000000E+000   0.00000000000E+000   0.00000000000E+000   0.00000000000E+000   0.00000000000E+000   0.00000000000E+000  -2.82174567221E+005   0.00000000000E+000   0.00000000000E+000   0.00000000000E+000   0.00000000000E+000   0.00000000000E+000  -9.38088807999E+006   0.00000000000E+000  -9.82662303589E+007   0.00000000000E+000   1.78567417927E+003   0.00000000000E+000   0.00000000000E+000   0.00000000000E+000   0.00000000000E+000   0.00000000000E+000   0.00000000000E+000   0.00000000000E+000   0.00000000000E+000   0.00000000000E+000   0.00000000000E+000   0.00000000000E+000   0.00000000000E+000   0.00000000000E+000   0.00000000000E+000   0.00000000000E+000   0.00000000000E+000   0.00000000000E+000   0.00000000000E+000   0.00000000000E+000
     0.00000000000E+000   0.00000000000E+000  -4.39481570682E+006   0.00000000000E+000   4.12529615690E+003   0.00000000000E+000   0.00000000000E+000   0.00000000000E+000  -8.07510389424E+005   0.00000000000E+000   0.00000000000E+000   0.00000000000E+000   0.00000000000E+000   0.00000000000E+000  -2.41346206440E+007   0.00000000000E+000   1.76471002267E+004   0.00000000000E+000   0.00000000000E+000   0.00000000000E+000   0.00000000000E+000   0.00000000000E+000   0.00000000000E+000   0.00000000000E+000   0.00000000000E+000   0.00000000000E+000   0.00000000000E+000   0.00000000000E+000   0.00000000000E+000   0.00000000000E+000   0.00000000000E+000   0.00000000000E+000   0.00000000000E+000   0.00000000000E+000   0.00000000000E+000   0.00000000000E+000   0.00000000000E+000
     0.00000000000E+000   2.03866874187E+008   3.89611321527E+003  -2.13421463291E+009   0.00000000000E+000   8.88084589332E+004   0.00000000000E+000   0.00000000000E+000   0.00000000000E+000  -2.78329285553E+009   0.00000000000E+000   0.00000000000E+000   0.00000000000E+000  -9.82009770033E+007   0.00000000000E+000  -1.13246520853E+010   1.14591559914E+002   5.30558922401E+004   0.00000000000E+000  -2.03866874187E+008  -3.89611321527E+003   0.00000000000E+000   0.00000000000E+000   0.00000000000E+000   0.00000000000E+000   0.00000000000E+000   0.00000000000E+000   0.00000000000E+000   0.00000000000E+000   0.00000000000E+000   0.00000000000E+000   0.00000000000E+000   0.00000000000E+000   0.00000000000E+000   0.00000000000E+000   0.00000000000E+000   0.00000000000E+000
    -2.03866906927E+008   0.00000000000E+000  -7.78567834110E+004   0.00000000000E+000  -2.13398086613E+009   0.00000000000E+000   0.00000000000E+000   0.00000000000E+000   0.00000000000E+000   0.00000000000E+000  -2.78328987615E+009   0.00000000000E+000   9.82036617200E+007   0.00000000000E+000   1.93168638404E+004   0.00000000000E+000  -1.13240534590E+010   0.00000000000E+000   2.03866906927E+008   0.00000000000E+000   8.17201561791E+004   0.00000000000E+000   0.00000000000E+000   0.00000000000E+000   0.00000000000E+000   0.00000000000E+000   0.00000000000E+000   0.00000000000E+000   0.00000000000E+000   0.00000000000E+000   0.00000000000E+000   0.00000000000E+000   0.00000000000E+000   0.00000000000E+000   0.00000000000E+000   0.00000000000E+000   0.00000000000E+000
    -3.94547967079E+003   8.17777077464E+004   0.00000000000E+000   0.00000000000E+000   0.00000000000E+000   0.00000000000E+000   0.00000000000E+000   0.00000000000E+000   0.00000000000E+000   0.00000000000E+000   0.00000000000E+000  -2.51327480415E+009   0.00000000000E+000   1.55338074818E+003   0.00000000000E+000   4.40416546091E+004   8.95246561827E-001  -1.95913504720E+010   3.94547967079E+003  -8.17777077464E+004   0.00000000000E+000   0.00000000000E+000   0.00000000000E+000   0.00000000000E+000   0.00000000000E+000   0.00000000000E+000   0.00000000000E+000   0.00000000000E+000   0.00000000000E+000   0.00000000000E+000   0.00000000000E+000   0.00000000000E+000   0.00000000000E+000   0.00000000000E+000   0.00000000000E+000   0.00000000000E+000   0.00000000000E+000
