
Linearized model: Predictions were generated on 13-Feb-2024 at 11:29:37 using OpenFAST, compiled as a 64-bit application using single precision at commit v3.5.1
 linked with  NWTC Subroutine Library; ElastoDyn; InflowWind; AeroDyn; ServoDyn; HydroDyn; MAP++ (<1.20.10>, <Oct-20-2023>)

Description from the FAST input file: CCT-9 Campign 4 model. Input files to be run with OpenFAST 3.5.0. GitHub branch from Lu Wang (https://github.com/luwang00/openfast/tree/dev) compiled on March 7, 2023.

Simulation information:
   Simulation time:                  1211.7250 s
   Rotor Speed:                         0.7915 rad/s
   Azimuth:                             0.7125 rad
   Wind Speed:                         16.0000 m/s
   Number of continuous states:        14
   Number of discrete states:           0
   Number of constraint states:         0
   Number of inputs:                 1890
   Number of outputs:                  25
   Jacobians included in this file?    No

Order of continuous states:
   Row/Column Operating Point                                                   Rotating Frame? Derivative Order Description
   ---------- ---------------                                                   --------------- ---------------- -----------
          1     8.64539241791E+000                                                     F               2         Platform horizontal surge translation DOF (internal DOF index = DOF_Sg), m
          2    -6.19555652142E-001                                                     F               2         Platform horizontal sway translation DOF (internal DOF index = DOF_Sw), m
          3    -1.29792869091E-001                                                     F               2         Platform vertical heave translation DOF (internal DOF index = DOF_Hv), m
          4     5.17171621323E-002                                                     F               2         Platform roll tilt rotation DOF (internal DOF index = DOF_R), rad
          5     1.13024905324E-001                                                     F               2         Platform pitch tilt rotation DOF (internal DOF index = DOF_P), rad
          6     5.19087421708E-004                                                     F               2         Platform yaw rotation DOF (internal DOF index = DOF_Y), rad
          7     5.42490911484E+000                                                     F               2         Variable speed generator DOF (internal DOF index = DOF_GeAz), rad
          8     5.70507909288E-005                                                     F               2         First time derivative of Platform horizontal surge translation DOF (internal DOF index = DOF_Sg), m/s
          9     5.08581812028E-004                                                     F               2         First time derivative of Platform horizontal sway translation DOF (internal DOF index = DOF_Sw), m/s
         10     1.46504933946E-003                                                     F               2         First time derivative of Platform vertical heave translation DOF (internal DOF index = DOF_Hv), m/s
         11    -3.34636642947E-005                                                     F               2         First time derivative of Platform roll tilt rotation DOF (internal DOF index = DOF_R), rad/s
         12     7.73269130150E-006                                                     F               2         First time derivative of Platform pitch tilt rotation DOF (internal DOF index = DOF_P), rad/s
         13     8.98989219422E-006                                                     F               2         First time derivative of Platform yaw rotation DOF (internal DOF index = DOF_Y), rad/s
         14     7.91528344154E-001                                                     F               2         First time derivative of Variable speed generator DOF (internal DOF index = DOF_GeAz), rad/s

Order of continuous state derivatives:
   Row/Column Operating Point                                                   Rotating Frame? Derivative Order Description
   ---------- ---------------                                                   --------------- ---------------- -----------
          1     5.70507909288E-005                                                     F               2         First time derivative of Platform horizontal surge translation DOF (internal DOF index = DOF_Sg), m/s
          2     5.08581812028E-004                                                     F               2         First time derivative of Platform horizontal sway translation DOF (internal DOF index = DOF_Sw), m/s
          3     1.46504933946E-003                                                     F               2         First time derivative of Platform vertical heave translation DOF (internal DOF index = DOF_Hv), m/s
          4    -3.34636642947E-005                                                     F               2         First time derivative of Platform roll tilt rotation DOF (internal DOF index = DOF_R), rad/s
          5     7.73269130150E-006                                                     F               2         First time derivative of Platform pitch tilt rotation DOF (internal DOF index = DOF_P), rad/s
          6     8.98989219422E-006                                                     F               2         First time derivative of Platform yaw rotation DOF (internal DOF index = DOF_Y), rad/s
          7     7.91528344154E-001                                                     F               2         First time derivative of Variable speed generator DOF (internal DOF index = DOF_GeAz), rad/s
          8    -1.14292408398E-004                                                     F               2         First time derivative of First time derivative of Platform horizontal surge translation DOF (internal DOF index = DOF_Sg), m/s/s
          9     3.64335515769E-004                                                     F               2         First time derivative of First time derivative of Platform horizontal sway translation DOF (internal DOF index = DOF_Sw), m/s/s
         10    -2.21092137508E-003                                                     F               2         First time derivative of First time derivative of Platform vertical heave translation DOF (internal DOF index = DOF_Hv), m/s/s
         11    -1.44461819218E-005                                                     F               2         First time derivative of First time derivative of Platform roll tilt rotation DOF (internal DOF index = DOF_R), rad/s/s
         12    -1.35479012897E-005                                                     F               2         First time derivative of First time derivative of Platform pitch tilt rotation DOF (internal DOF index = DOF_P), rad/s/s
         13     1.04794353319E-005                                                     F               2         First time derivative of First time derivative of Platform yaw rotation DOF (internal DOF index = DOF_Y), rad/s/s
         14    -1.66024619830E-004                                                     F               2         First time derivative of First time derivative of Variable speed generator DOF (internal DOF index = DOF_GeAz), rad/s/s

Order of inputs:
     Column   Operating Point                                                   Rotating Frame? Derivative Order Description
   ---------- ---------------                                                   --------------- ---------------- -----------
          1     1.95133560181E+002                                                     F               0         Blade 1 X force, node 1, N
          2     1.10123207092E+002                                                     F               0         Blade 1 Y force, node 1, N
          3     6.33331184387E+001                                                     F               0         Blade 1 Z force, node 1, N
          4     7.67180419922E+002                                                     F               0         Blade 1 X force, node 2, N
          5     1.87522994995E+002                                                     F               0         Blade 1 Y force, node 2, N
          6     8.15447902679E+000                                                     F               0         Blade 1 Z force, node 2, N
          7     9.36505187988E+002                                                     F               0         Blade 1 X force, node 3, N
          8     3.95249099731E+001                                                     F               0         Blade 1 Y force, node 3, N
          9    -1.75890487671E+002                                                     F               0         Blade 1 Z force, node 3, N
         10     1.18760192871E+003                                                     F               0         Blade 1 X force, node 4, N
         11    -8.62333450317E+001                                                     F               0         Blade 1 Y force, node 4, N
         12    -3.56856201172E+002                                                     F               0         Blade 1 Z force, node 4, N
         13     1.43870947266E+003                                                     F               0         Blade 1 X force, node 5, N
         14    -2.11993545532E+002                                                     F               0         Blade 1 Y force, node 5, N
         15    -5.37826293945E+002                                                     F               0         Blade 1 Z force, node 5, N
         16     1.68980895996E+003                                                     F               0         Blade 1 X force, node 6, N
         17    -3.37753143311E+002                                                     F               0         Blade 1 Y force, node 6, N
         18    -7.18793945312E+002                                                     F               0         Blade 1 Z force, node 6, N
         19     1.94089562988E+003                                                     F               0         Blade 1 X force, node 7, N
         20    -4.63509704590E+002                                                     F               0         Blade 1 Y force, node 7, N
         21    -8.99755676270E+002                                                     F               0         Blade 1 Z force, node 7, N
         22     2.19199243164E+003                                                     F               0         Blade 1 X force, node 8, N
         23    -5.89268005371E+002                                                     F               0         Blade 1 Y force, node 8, N
         24    -1.08072131348E+003                                                     F               0         Blade 1 Z force, node 8, N
         25     2.44308935547E+003                                                     F               0         Blade 1 X force, node 9, N
         26    -7.15026245117E+002                                                     F               0         Blade 1 Y force, node 9, N
         27    -1.26168725586E+003                                                     F               0         Blade 1 Z force, node 9, N
         28     2.69418603516E+003                                                     F               0         Blade 1 X force, node 10, N
         29    -8.40784484863E+002                                                     F               0         Blade 1 Y force, node 10, N
         30    -1.44265283203E+003                                                     F               0         Blade 1 Z force, node 10, N
         31     2.94528271484E+003                                                     F               0         Blade 1 X force, node 11, N
         32    -9.66542785645E+002                                                     F               0         Blade 1 Y force, node 11, N
         33    -1.62361865234E+003                                                     F               0         Blade 1 Z force, node 11, N
         34     3.19640209961E+003                                                     F               0         Blade 1 X force, node 12, N
         35    -1.09230883789E+003                                                     F               0         Blade 1 Y force, node 12, N
         36    -1.80459704590E+003                                                     F               0         Blade 1 Z force, node 12, N
         37     3.44750170898E+003                                                     F               0         Blade 1 X force, node 13, N
         38    -1.21806848145E+003                                                     F               0         Blade 1 Y force, node 13, N
         39    -1.98556481934E+003                                                     F               0         Blade 1 Z force, node 13, N
         40     3.69857666016E+003                                                     F               0         Blade 1 X force, node 14, N
         41    -1.34381921387E+003                                                     F               0         Blade 1 Y force, node 14, N
         42    -2.16651831055E+003                                                     F               0         Blade 1 Z force, node 14, N
         43     3.94969995117E+003                                                     F               0         Blade 1 X force, node 15, N
         44    -1.46958740234E+003                                                     F               0         Blade 1 Y force, node 15, N
         45    -2.34749975586E+003                                                     F               0         Blade 1 Z force, node 15, N
         46     4.20076953125E+003                                                     F               0         Blade 1 X force, node 16, N
         47    -1.59533532715E+003                                                     F               0         Blade 1 Y force, node 16, N
         48    -2.52844897461E+003                                                     F               0         Blade 1 Z force, node 16, N
         49     5.15823974609E+003                                                     F               0         Blade 1 X force, node 17, N
         50    -1.98892834473E+003                                                     F               0         Blade 1 Y force, node 17, N
         51    -3.13416357422E+003                                                     F               0         Blade 1 Z force, node 17, N
         52     3.90558862305E+003                                                     F               0         Blade 1 X force, node 18, N
         53    -1.47525415039E+003                                                     F               0         Blade 1 Y force, node 18, N
         54    -2.34294897461E+003                                                     F               0         Blade 1 Z force, node 18, N
         55     4.74822119141E+003                                                     F               0         Blade 1 X force, node 19, N
         56    -1.73783251953E+003                                                     F               0         Blade 1 Y force, node 19, N
         57    -2.79377465820E+003                                                     F               0         Blade 1 Z force, node 19, N
         58     4.01328833008E+003                                                     F               0         Blade 1 X force, node 20, N
         59    -1.42457580566E+003                                                     F               0         Blade 1 Y force, node 20, N
         60    -2.31790625000E+003                                                     F               0         Blade 1 Z force, node 20, N
         61     5.86057958984E+003                                                     F               0         Blade 1 X force, node 21, N
         62    -2.00792541504E+003                                                     F               0         Blade 1 Y force, node 21, N
         63    -3.31380419922E+003                                                     F               0         Blade 1 Z force, node 21, N
         64     5.10318994141E+003                                                     F               0         Blade 1 X force, node 22, N
         65    -1.68836450195E+003                                                     F               0         Blade 1 Y force, node 22, N
         66    -2.82660180664E+003                                                     F               0         Blade 1 Z force, node 22, N
         67     5.17773095703E+003                                                     F               0         Blade 1 X force, node 23, N
         68    -1.65857678223E+003                                                     F               0         Blade 1 Y force, node 23, N
         69    -2.81445800781E+003                                                     F               0         Blade 1 Z force, node 23, N
         70     5.34112792969E+003                                                     F               0         Blade 1 X force, node 24, N
         71    -1.65706054688E+003                                                     F               0         Blade 1 Y force, node 24, N
         72    -2.85042651367E+003                                                     F               0         Blade 1 Z force, node 24, N
         73     5.39929492188E+003                                                     F               0         Blade 1 X force, node 25, N
         74    -1.62414392090E+003                                                     F               0         Blade 1 Y force, node 25, N
         75    -2.83145849609E+003                                                     F               0         Blade 1 Z force, node 25, N
         76     5.48502197266E+003                                                     F               0         Blade 1 X force, node 26, N
         77    -1.60025329590E+003                                                     F               0         Blade 1 Y force, node 26, N
         78    -2.82766601562E+003                                                     F               0         Blade 1 Z force, node 26, N
         79     6.48119335938E+003                                                     F               0         Blade 1 X force, node 27, N
         80    -1.83072656250E+003                                                     F               0         Blade 1 Y force, node 27, N
         81    -3.28218286133E+003                                                     F               0         Blade 1 Z force, node 27, N
         82     4.73012158203E+003                                                     F               0         Blade 1 X force, node 28, N
         83    -1.29547143555E+003                                                     F               0         Blade 1 Y force, node 28, N
         84    -2.35553735352E+003                                                     F               0         Blade 1 Z force, node 28, N
         85     5.70603613281E+003                                                     F               0         Blade 1 X force, node 29, N
         86    -1.52261694336E+003                                                     F               0         Blade 1 Y force, node 29, N
         87    -2.80214526367E+003                                                     F               0         Blade 1 Z force, node 29, N
         88     4.78956835938E+003                                                     F               0         Blade 1 X force, node 30, N
         89    -1.24519628906E+003                                                     F               0         Blade 1 Y force, node 30, N
         90    -2.31982934570E+003                                                     F               0         Blade 1 Z force, node 30, N
         91     6.80808544922E+003                                                     F               0         Blade 1 X force, node 31, N
         92    -1.71727661133E+003                                                     F               0         Blade 1 Y force, node 31, N
         93    -3.24578857422E+003                                                     F               0         Blade 1 Z force, node 31, N
         94     5.87548339844E+003                                                     F               0         Blade 1 X force, node 32, N
         95    -1.43894750977E+003                                                     F               0         Blade 1 Y force, node 32, N
         96    -2.75888256836E+003                                                     F               0         Blade 1 Z force, node 32, N
         97     5.92167480469E+003                                                     F               0         Blade 1 X force, node 33, N
         98    -1.41032995605E+003                                                     F               0         Blade 1 Y force, node 33, N
         99    -2.74138891602E+003                                                     F               0         Blade 1 Z force, node 33, N
        100     5.96736376953E+003                                                     F               0         Blade 1 X force, node 34, N
        101    -1.38207348633E+003                                                     F               0         Blade 1 Y force, node 34, N
        102    -2.72413427734E+003                                                     F               0         Blade 1 Z force, node 34, N
        103     6.00496435547E+003                                                     F               0         Blade 1 X force, node 35, N
        104    -1.35381762695E+003                                                     F               0         Blade 1 Y force, node 35, N
        105    -2.70502563477E+003                                                     F               0         Blade 1 Z force, node 35, N
        106     6.03894335938E+003                                                     F               0         Blade 1 X force, node 36, N
        107    -1.32520080566E+003                                                     F               0         Blade 1 Y force, node 36, N
        108    -2.68473364258E+003                                                     F               0         Blade 1 Z force, node 36, N
        109     7.09796630859E+003                                                     F               0         Blade 1 X force, node 37, N
        110    -1.51295007324E+003                                                     F               0         Blade 1 Y force, node 37, N
        111    -3.11173291016E+003                                                     F               0         Blade 1 Z force, node 37, N
        112     5.07665625000E+003                                                     F               0         Blade 1 X force, node 38, N
        113    -1.05240466309E+003                                                     F               0         Blade 1 Y force, node 38, N
        114    -2.19645288086E+003                                                     F               0         Blade 1 Z force, node 38, N
        115     6.12574951172E+003                                                     F               0         Blade 1 X force, node 39, N
        116    -1.24050195312E+003                                                     F               0         Blade 1 Y force, node 39, N
        117    -2.62151757812E+003                                                     F               0         Blade 1 Z force, node 39, N
        118     5.14406689453E+003                                                     F               0         Blade 1 X force, node 40, N
        119    -1.01710992432E+003                                                     F               0         Blade 1 Y force, node 40, N
        120    -2.17727026367E+003                                                     F               0         Blade 1 Z force, node 40, N
        121     7.17282177734E+003                                                     F               0         Blade 1 X force, node 41, N
        122    -1.37920275879E+003                                                     F               0         Blade 1 Y force, node 41, N
        123    -2.99764624023E+003                                                     F               0         Blade 1 Z force, node 41, N
        124     6.17365185547E+003                                                     F               0         Blade 1 X force, node 42, N
        125    -1.15474792480E+003                                                     F               0         Blade 1 Y force, node 42, N
        126    -2.54834765625E+003                                                     F               0         Blade 1 Z force, node 42, N
        127     6.17920654297E+003                                                     F               0         Blade 1 X force, node 43, N
        128    -1.12552124023E+003                                                     F               0         Blade 1 Y force, node 43, N
        129    -2.52094091797E+003                                                     F               0         Blade 1 Z force, node 43, N
        130     6.21614941406E+003                                                     F               0         Blade 1 X force, node 44, N
        131    -1.10221472168E+003                                                     F               0         Blade 1 Y force, node 44, N
        132    -2.50653857422E+003                                                     F               0         Blade 1 Z force, node 44, N
        133     6.15066503906E+003                                                     F               0         Blade 1 X force, node 45, N
        134    -1.06257629395E+003                                                     F               0         Blade 1 Y force, node 45, N
        135    -2.45263037109E+003                                                     F               0         Blade 1 Z force, node 45, N
        136     6.18162011719E+003                                                     F               0         Blade 1 X force, node 46, N
        137    -1.04031628418E+003                                                     F               0         Blade 1 Y force, node 46, N
        138    -2.43788232422E+003                                                     F               0         Blade 1 Z force, node 46, N
        139     7.25484619141E+003                                                     F               0         Blade 1 X force, node 47, N
        140    -1.18638818359E+003                                                     F               0         Blade 1 Y force, node 47, N
        141    -2.82723999023E+003                                                     F               0         Blade 1 Z force, node 47, N
        142     5.09815576172E+003                                                     F               0         Blade 1 X force, node 48, N
        143    -8.10956787109E+002                                                     F               0         Blade 1 Y force, node 48, N
        144    -1.96444836426E+003                                                     F               0         Blade 1 Z force, node 48, N
        145     6.16393750000E+003                                                     F               0         Blade 1 X force, node 49, N
        146    -9.57884643555E+002                                                     F               0         Blade 1 Y force, node 49, N
        147    -2.35293872070E+003                                                     F               0         Blade 1 Z force, node 49, N
        148     5.18594628906E+003                                                     F               0         Blade 1 X force, node 50, N
        149    -7.86596069336E+002                                                     F               0         Blade 1 Y force, node 50, N
        150    -1.96066735840E+003                                                     F               0         Blade 1 Z force, node 50, N
        151     7.11133203125E+003                                                     F               0         Blade 1 X force, node 51, N
        152    -1.04834289551E+003                                                     F               0         Blade 1 Y force, node 51, N
        153    -2.65887792969E+003                                                     F               0         Blade 1 Z force, node 51, N
        154     6.12730322266E+003                                                     F               0         Blade 1 X force, node 52, N
        155    -8.77984924316E+002                                                     F               0         Blade 1 Y force, node 52, N
        156    -2.26613549805E+003                                                     F               0         Blade 1 Z force, node 52, N
        157     6.11135742188E+003                                                     F               0         Blade 1 X force, node 53, N
        158    -8.51888122559E+002                                                     F               0         Blade 1 Y force, node 53, N