
Linearized model: Predictions were generated on 12-Feb-2024 at 15:30:16 using OpenFAST, compiled as a 64-bit application using single precision at commit v3.5.1
 linked with  NWTC Subroutine Library; ElastoDyn; InflowWind; AeroDyn; ServoDyn; HydroDyn; MAP++ (<1.20.10>, <Oct-20-2023>)

Description from the FAST input file: CCT-9 Campign 4 model. Input files to be run with OpenFAST 3.5.0. GitHub branch from Lu Wang (https://github.com/luwang00/openfast/tree/dev) compiled on March 7, 2023.

Simulation information:
   Simulation time:                  1008.2000 s
   Rotor Speed:                         1.0425 rad/s
   Azimuth:                             3.2976 rad
   Wind Speed:                         12.0000 m/s
   Number of continuous states:        22
   Number of discrete states:           0
   Number of constraint states:         0
   Number of inputs:                 3988
   Number of outputs:                  42
   Jacobians included in this file?    No

Order of continuous states:
   Row/Column Operating Point                     Rotating Frame? Derivative Order Description
   ---------- ---------------                     --------------- ---------------- -----------
          1    1.229E+01                                 F               2         ED Platform horizontal surge translation DOF (internal DOF index = DOF_Sg), m
          2   -2.192E-01                                 F               2         ED Platform horizontal sway translation DOF (internal DOF index = DOF_Sw), m
          3   -2.429E-01                                 F               2         ED Platform vertical heave translation DOF (internal DOF index = DOF_Hv), m
          4    5.350E-02                                 F               2         ED Platform roll tilt rotation DOF (internal DOF index = DOF_R), rad
          5    1.566E-01                                 F               2         ED Platform pitch tilt rotation DOF (internal DOF index = DOF_P), rad
          6    1.029E-02                                 F               2         ED Platform yaw rotation DOF (internal DOF index = DOF_Y), rad
          7    1.080E+00                                 F               2         ED 1st tower fore-aft bending mode DOF (internal DOF index = DOF_TFA1), m
          8    2.336E-01                                 F               2         ED 1st tower side-to-side bending mode DOF (internal DOF index = DOF_TSS1), m
          9    1.615E-03                                 F               2         ED 2nd tower fore-aft bending mode DOF (internal DOF index = DOF_TFA2), m
         10    9.692E-05                                 F               2         ED 2nd tower side-to-side bending mode DOF (internal DOF index = DOF_TSS2), m
         11    1.727E+00                                 F               2         ED Variable speed generator DOF (internal DOF index = DOF_GeAz), rad
         12    5.061E-04                                 F               2         ED First time derivative of Platform horizontal surge translation DOF (internal DOF index = DOF_Sg), m/s
         13   -7.069E-04                                 F               2         ED First time derivative of Platform horizontal sway translation DOF (internal DOF index = DOF_Sw), m/s
         14    5.525E-03                                 F               2         ED First time derivative of Platform vertical heave translation DOF (internal DOF index = DOF_Hv), m/s
         15   -2.109E-04                                 F               2         ED First time derivative of Platform roll tilt rotation DOF (internal DOF index = DOF_R), rad/s
         16   -8.712E-05                                 F               2         ED First time derivative of Platform pitch tilt rotation DOF (internal DOF index = DOF_P), rad/s
         17    4.235E-04                                 F               2         ED First time derivative of Platform yaw rotation DOF (internal DOF index = DOF_Y), rad/s
         18   -3.285E-03                                 F               2         ED First time derivative of 1st tower fore-aft bending mode DOF (internal DOF index = DOF_TFA1), m/s
         19   -2.116E-03                                 F               2         ED First time derivative of 1st tower side-to-side bending mode DOF (internal DOF index = DOF_TSS1), m/s
         20   -5.555E-06                                 F               2         ED First time derivative of 2nd tower fore-aft bending mode DOF (internal DOF index = DOF_TFA2), m/s
         21    8.438E-07                                 F               2         ED First time derivative of 2nd tower side-to-side bending mode DOF (internal DOF index = DOF_TSS2), m/s
         22    1.043E+00                                 F               2         ED First time derivative of Variable speed generator DOF (internal DOF index = DOF_GeAz), rad/s

Order of continuous state derivatives:
   Row/Column Operating Point                     Rotating Frame? Derivative Order Description
   ---------- ---------------                     --------------- ---------------- -----------
          1    5.061E-04                                 F               2         First time derivative of ED Platform horizontal surge translation DOF (internal DOF index = DOF_Sg), m/s
          2   -7.069E-04                                 F               2         First time derivative of ED Platform horizontal sway translation DOF (internal DOF index = DOF_Sw), m/s
          3    5.525E-03                                 F               2         First time derivative of ED Platform vertical heave translation DOF (internal DOF index = DOF_Hv), m/s
          4   -2.109E-04                                 F               2         First time derivative of ED Platform roll tilt rotation DOF (internal DOF index = DOF_R), rad/s
          5   -8.712E-05                                 F               2         First time derivative of ED Platform pitch tilt rotation DOF (internal DOF index = DOF_P), rad/s
          6    4.235E-04                                 F               2         First time derivative of ED Platform yaw rotation DOF (internal DOF index = DOF_Y), rad/s
          7   -3.285E-03                                 F               2         First time derivative of ED 1st tower fore-aft bending mode DOF (internal DOF index = DOF_TFA1), m/s
          8   -2.116E-03                                 F               2         First time derivative of ED 1st tower side-to-side bending mode DOF (internal DOF index = DOF_TSS1), m/s
          9   -5.555E-06                                 F               2         First time derivative of ED 2nd tower fore-aft bending mode DOF (internal DOF index = DOF_TFA2), m/s
         10    8.438E-07                                 F               2         First time derivative of ED 2nd tower side-to-side bending mode DOF (internal DOF index = DOF_TSS2), m/s
         11    1.043E+00                                 F               2         First time derivative of ED Variable speed generator DOF (internal DOF index = DOF_GeAz), rad/s
         12    7.444E-05                                 F               2         First time derivative of ED First time derivative of Platform horizontal surge translation DOF (internal DOF index = DOF_Sg), m/s/s
         13   -6.734E-04                                 F               2         First time derivative of ED First time derivative of Platform horizontal sway translation DOF (internal DOF index = DOF_Sw), m/s/s
         14   -3.012E-04                                 F               2         First time derivative of ED First time derivative of Platform vertical heave translation DOF (internal DOF index = DOF_Hv), m/s/s
         15   -3.707E-04                                 F               2         First time derivative of ED First time derivative of Platform roll tilt rotation DOF (internal DOF index = DOF_R), rad/s/s
         16   -9.226E-06                                 F               2         First time derivative of ED First time derivative of Platform pitch tilt rotation DOF (internal DOF index = DOF_P), rad/s/s
         17    1.167E-04                                 F               2         First time derivative of ED First time derivative of Platform yaw rotation DOF (internal DOF index = DOF_Y), rad/s/s
         18    2.539E-03                                 F               2         First time derivative of ED First time derivative of 1st tower fore-aft bending mode DOF (internal DOF index = DOF_TFA1), m/s/s
         19   -5.504E-03                                 F               2         First time derivative of ED First time derivative of 1st tower side-to-side bending mode DOF (internal DOF index = DOF_TSS1), m/s/s
         20    1.451E-06                                 F               2         First time derivative of ED First time derivative of 2nd tower fore-aft bending mode DOF (internal DOF index = DOF_TFA2), m/s/s
         21   -4.626E-07                                 F               2         First time derivative of ED First time derivative of 2nd tower side-to-side bending mode DOF (internal DOF index = DOF_TSS2), m/s/s
         22    6.605E-04                                 F               2         First time derivative of ED First time derivative of Variable speed generator DOF (internal DOF index = DOF_GeAz), rad/s/s

Order of inputs:
     Column   Operating Point                     Rotating Frame? Derivative Order Description
   ---------- ---------------                     --------------- ---------------- -----------
          1   -1.080E+01                                 F               0         IfW X-component position of node 1 (hub), m
          2    0.000E+00                                 F               0         IfW Y-component position of node 1 (hub), m
          3    1.497E+02                                 F               0         IfW Z-component position of node 1 (hub), m
          4    2.451E+01                                 F               0         IfW X-component position of node 2 (blade 1, node 1), m
          5   -7.255E+00                                 F               0         IfW Y-component position of node 2 (blade 1, node 1), m
          6    1.439E+02                                 F               0         IfW Z-component position of node 2 (blade 1, node 1), m
          7    2.415E+01                                 F               0         IfW X-component position of node 3 (blade 1, node 2), m
          8   -6.978E+00                                 F               0         IfW Y-component position of node 3 (blade 1, node 2), m
          9    1.426E+02                                 F               0         IfW Z-component position of node 3 (blade 1, node 2), m
         10    1.930E+01                                 F               0         IfW X-component position of node 4 (blade 1, node 3), m
         11   -3.216E+00                                 F               0         IfW Y-component position of node 4 (blade 1, node 3), m
         12    1.255E+02                                 F               0         IfW Z-component position of node 4 (blade 1, node 3), m
         13    1.827E+01                                 F               0         IfW X-component position of node 5 (blade 1, node 4), m
         14   -2.414E+00                                 F               0         IfW Y-component position of node 5 (blade 1, node 4), m
         15    1.219E+02                                 F               0         IfW Z-component position of node 5 (blade 1, node 4), m
         16    1.723E+01                                 F               0         IfW X-component position of node 6 (blade 1, node 5), m
         17   -1.612E+00                                 F               0         IfW Y-component position of node 6 (blade 1, node 5), m
         18    1.183E+02                                 F               0         IfW Z-component position of node 6 (blade 1, node 5), m
         19    1.620E+01                                 F               0         IfW X-component position of node 7 (blade 1, node 6), m
         20   -8.104E-01                                 F               0         IfW Y-component position of node 7 (blade 1, node 6), m
         21    1.146E+02                                 F               0         IfW Z-component position of node 7 (blade 1, node 6), m
         22    1.517E+01                                 F               0         IfW X-component position of node 8 (blade 1, node 7), m
         23   -8.663E-03                                 F               0         IfW Y-component position of node 8 (blade 1, node 7), m
         24    1.110E+02                                 F               0         IfW Z-component position of node 8 (blade 1, node 7), m
         25    1.413E+01                                 F               0         IfW X-component position of node 9 (blade 1, node 8), m
         26    7.932E-01                                 F               0         IfW Y-component position of node 9 (blade 1, node 8), m
         27    1.073E+02                                 F               0         IfW Z-component position of node 9 (blade 1, node 8), m
         28    1.310E+01                                 F               0         IfW X-component position of node 10 (blade 1, node 9), m
         29    1.595E+00                                 F               0         IfW Y-component position of node 10 (blade 1, node 9), m
         30    1.037E+02                                 F               0         IfW Z-component position of node 10 (blade 1, node 9), m
         31    1.207E+01                                 F               0         IfW X-component position of node 11 (blade 1, node 10), m
         32    2.397E+00                                 F               0         IfW Y-component position of node 11 (blade 1, node 10), m
         33    1.001E+02                                 F               0         IfW Z-component position of node 11 (blade 1, node 10), m
         34    1.103E+01                                 F               0         IfW X-component position of node 12 (blade 1, node 11), m
         35    3.198E+00                                 F               0         IfW Y-component position of node 12 (blade 1, node 11), m
         36    9.642E+01                                 F               0         IfW Z-component position of node 12 (blade 1, node 11), m
         37    1.000E+01                                 F               0         IfW X-component position of node 13 (blade 1, node 12), m
         38    4.000E+00                                 F               0         IfW Y-component position of node 13 (blade 1, node 12), m
         39    9.278E+01                                 F               0         IfW Z-component position of node 13 (blade 1, node 12), m
         40    8.968E+00                                 F               0         IfW X-component position of node 14 (blade 1, node 13), m
         41    4.802E+00                                 F               0         IfW Y-component position of node 14 (blade 1, node 13), m
         42    8.914E+01                                 F               0         IfW Z-component position of node 14 (blade 1, node 13), m
         43    7.935E+00                                 F               0         IfW X-component position of node 15 (blade 1, node 14), m
         44    5.604E+00                                 F               0         IfW Y-component position of node 15 (blade 1, node 14), m
         45    8.550E+01                                 F               0         IfW Z-component position of node 15 (blade 1, node 14), m
         46    6.902E+00                                 F               0         IfW X-component position of node 16 (blade 1, node 15), m
         47    6.405E+00                                 F               0         IfW Y-component position of node 16 (blade 1, node 15), m
         48    8.186E+01                                 F               0         IfW Z-component position of node 16 (blade 1, node 15), m
         49    5.868E+00                                 F               0         IfW X-component position of node 17 (blade 1, node 16), m
         50    7.207E+00                                 F               0         IfW Y-component position of node 17 (blade 1, node 16), m
         51    7.822E+01                                 F               0         IfW Z-component position of node 17 (blade 1, node 16), m
         52    4.835E+00                                 F               0         IfW X-component position of node 18 (blade 1, node 17), m
         53    8.009E+00                                 F               0         IfW Y-component position of node 18 (blade 1, node 17), m
         54    7.458E+01                                 F               0         IfW Z-component position of node 18 (blade 1, node 17), m
         55    3.802E+00                                 F               0         IfW X-component position of node 19 (blade 1, node 18), m
         56    8.810E+00                                 F               0         IfW Y-component position of node 19 (blade 1, node 18), m
         57    7.094E+01                                 F               0         IfW Z-component position of node 19 (blade 1, node 18), m
         58    2.768E+00                                 F               0         IfW X-component position of node 20 (blade 1, node 19), m
         59    9.612E+00                                 F               0         IfW Y-component position of node 20 (blade 1, node 19), m
         60    6.730E+01                                 F               0         IfW Z-component position of node 20 (blade 1, node 19), m
         61    1.735E+00                                 F               0         IfW X-component position of node 21 (blade 1, node 20), m
         62    1.041E+01                                 F               0         IfW Y-component position of node 21 (blade 1, node 20), m
         63    6.366E+01                                 F               0         IfW Z-component position of node 21 (blade 1, node 20), m
         64    7.018E-01                                 F               0         IfW X-component position of node 22 (blade 1, node 21), m
         65    1.122E+01                                 F               0         IfW Y-component position of node 22 (blade 1, node 21), m
         66    6.002E+01                                 F               0         IfW Z-component position of node 22 (blade 1, node 21), m
         67   -3.317E-01                                 F               0         IfW X-component position of node 23 (blade 1, node 22), m
         68    1.202E+01                                 F               0         IfW Y-component position of node 23 (blade 1, node 22), m
         69    5.638E+01                                 F               0         IfW Z-component position of node 23 (blade 1, node 22), m
         70   -1.365E+00                                 F               0         IfW X-component position of node 24 (blade 1, node 23), m
         71    1.282E+01                                 F               0         IfW Y-component position of node 24 (blade 1, node 23), m
         72    5.274E+01                                 F               0         IfW Z-component position of node 24 (blade 1, node 23), m
         73   -2.398E+00                                 F               0         IfW X-component position of node 25 (blade 1, node 24), m
         74    1.362E+01                                 F               0         IfW Y-component position of node 25 (blade 1, node 24), m
         75    4.910E+01                                 F               0         IfW Z-component position of node 25 (blade 1, node 24), m
         76   -3.431E+00                                 F               0         IfW X-component position of node 26 (blade 1, node 25), m
         77    1.442E+01                                 F               0         IfW Y-component position of node 26 (blade 1, node 25), m
         78    4.546E+01                                 F               0         IfW Z-component position of node 26 (blade 1, node 25), m
         79   -4.465E+00                                 F               0         IfW X-component position of node 27 (blade 1, node 26), m
         80    1.522E+01                                 F               0         IfW Y-component position of node 27 (blade 1, node 26), m
         81    4.182E+01                                 F               0         IfW Z-component position of node 27 (blade 1, node 26), m
         82   -5.498E+00                                 F               0         IfW X-component position of node 28 (blade 1, node 27), m
         83    1.603E+01                                 F               0         IfW Y-component position of node 28 (blade 1, node 27), m
         84    3.818E+01                                 F               0         IfW Z-component position of node 28 (blade 1, node 27), m
         85   -6.374E+00                                 F               0         IfW X-component position of node 29 (blade 1, node 28), m
         86    1.671E+01                                 F               0         IfW Y-component position of node 29 (blade 1, node 28), m
         87    3.509E+01                                 F               0         IfW Z-component position of node 29 (blade 1, node 28), m
         88    2.690E+01                                 F               0         IfW X-component position of node 30 (blade 2, node 1), m
         89   -4.285E+00                                 F               0         IfW Y-component position of node 30 (blade 2, node 1), m
         90    1.527E+02                                 F               0         IfW Z-component position of node 30 (blade 2, node 1), m
         91    2.712E+01                                 F               0         IfW X-component position of node 31 (blade 2, node 2), m
         92   -3.293E+00                                 F               0         IfW Y-component position of node 31 (blade 2, node 2), m
         93    1.535E+02                                 F               0         IfW Z-component position of node 31 (blade 2, node 2), m
         94    3.012E+01                                 F               0         IfW X-component position of node 32 (blade 2, node 3), m
         95    1.020E+01                                 F               0         IfW Y-component position of node 32 (blade 2, node 3), m
         96    1.653E+02                                 F               0         IfW Z-component position of node 32 (blade 2, node 3), m
         97    3.076E+01                                 F               0         IfW X-component position of node 33 (blade 2, node 4), m
         98    1.308E+01                                 F               0         IfW Y-component position of node 33 (blade 2, node 4), m
         99    1.678E+02                                 F               0         IfW Z-component position of node 33 (blade 2, node 4), m
        100    3.140E+01                                 F               0         IfW X-component position of node 34 (blade 2, node 5), m
        101    1.595E+01                                 F               0         IfW Y-component position of node 34 (blade 2, node 5), m
        102    1.703E+02                                 F               0         IfW Z-component position of node 34 (blade 2, node 5), m
        103    3.203E+01                                 F               0         IfW X-component position of node 35 (blade 2, node 6), m
        104    1.883E+01                                 F               0         IfW Y-component position of node 35 (blade 2, node 6), m
        105    1.728E+02                                 F               0         IfW Z-component position of node 35 (blade 2, node 6), m
        106    3.267E+01                                 F               0         IfW X-component position of node 36 (blade 2, node 7), m
        107    2.170E+01                                 F               0         IfW Y-component position of node 36 (blade 2, node 7), m
        108    1.753E+02                                 F               0         IfW Z-component position of node 36 (blade 2, node 7), m
        109    3.331E+01                                 F               0         IfW X-component position of node 37 (blade 2, node 8), m
        110    2.458E+01                                 F               0         IfW Y-component position of node 37 (blade 2, node 8), m
        111    1.778E+02                                 F               0         IfW Z-component position of node 37 (blade 2, node 8), m
        112    3.395E+01                                 F               0         IfW X-component position of node 38 (blade 2, node 9), m
        113    2.745E+01                                 F               0         IfW Y-component position of node 38 (blade 2, node 9), m
        114    1.804E+02                                 F               0         IfW Z-component position of node 38 (blade 2, node 9), m
        115    3.459E+01                                 F               0         IfW X-component position of node 39 (blade 2, node 10), m
        116    3.033E+01                                 F               0         IfW Y-component position of node 39 (blade 2, node 10), m
        117    1.829E+02                                 F               0         IfW Z-component position of node 39 (blade 2, node 10), m
        118    3.523E+01                                 F               0         IfW X-component position of node 40 (blade 2, node 11), m
        119    3.320E+01                                 F               0         IfW Y-component position of node 40 (blade 2, node 11), m
        120    1.854E+02                                 F               0         IfW Z-component position of node 40 (blade 2, node 11), m
        121    3.587E+01                                 F               0         IfW X-component position of node 41 (blade 2, node 12), m
        122    3.608E+01                                 F               0         IfW Y-component position of node 41 (blade 2, node 12), m
        123    1.879E+02                                 F               0         IfW Z-component position of node 41 (blade 2, node 12), m
        124    3.650E+01                                 F               0         IfW X-component position of node 42 (blade 2, node 13), m
        125    3.895E+01                                 F               0         IfW Y-component position of node 42 (blade 2, node 13), m
        126    1.904E+02                                 F               0         IfW Z-component position of node 42 (blade 2, node 13), m
        127    3.714E+01                                 F               0         IfW X-component position of node 43 (blade 2, node 14), m
        128    4.183E+01                                 F               0         IfW Y-component position of node 43 (blade 2, node 14), m
        129    1.929E+02                                 F               0         IfW Z-component position of node 43 (blade 2, node 14), m
        130    3.778E+01                                 F               0         IfW X-component position of node 44 (blade 2, node 15), m
        131    4.470E+01                                 F               0         IfW Y-component position of node 44 (blade 2, node 15), m
        132    1.954E+02                                 F               0         IfW Z-component position of node 44 (blade 2, node 15), m
        133    3.842E+01                                 F               0         IfW X-component position of node 45 (blade 2, node 16), m
        134    4.758E+01                                 F               0         IfW Y-component position of node 45 (blade 2, node 16), m
        135    1.979E+02                                 F               0         IfW Z-component position of node 45 (blade 2, node 16), m
        136    3.906E+01                                 F               0         IfW X-component position of node 46 (blade 2, node 17), m
        137    5.045E+01                                 F               0         IfW Y-component position of node 46 (blade 2, node 17), m
        138    2.004E+02                                 F               0         IfW Z-component position of node 46 (blade 2, node 17), m
        139    3.970E+01                                 F               0         IfW X-component position of node 47 (blade 2, node 18), m
        140    5.333E+01                                 F               0         IfW Y-component position of node 47 (blade 2, node 18), m
        141    2.029E+02                                 F               0         IfW Z-component position of node 47 (blade 2, node 18), m
        142    4.033E+01                                 F               0         IfW X-component position of node 48 (blade 2, node 19), m
        143    5.620E+01                                 F               0         IfW Y-component position of node 48 (blade 2, node 19), m
        144    2.054E+02                                 F               0         IfW Z-component position of node 48 (blade 2, node 19), m