
Linearized model: Predictions were generated on 12-Feb-2024 at 15:30:16 using OpenFAST, compiled as a 64-bit application using single precision at commit v3.5.1
 linked with  NWTC Subroutine Library; ElastoDyn; InflowWind; AeroDyn; ServoDyn; HydroDyn; MAP++ (<1.20.10>, <Oct-20-2023>)

Description from the FAST input file: CCT-9 Campign 4 model. Input files to be run with OpenFAST 3.5.0. GitHub branch from Lu Wang (https://github.com/luwang00/openfast/tree/dev) compiled on March 7, 2023.

Simulation information:
   Simulation time:                  1000.0000 s
   Rotor Speed:                         1.0387 rad/s
   Azimuth:                             1.0500 rad
   Wind Speed:                         12.0000 m/s
   Number of continuous states:         0
   Number of discrete states:           0
   Number of constraint states:         0
   Number of inputs:                  303
   Number of outputs:                   1
   Jacobians included in this file?    No

Order of inputs:
     Column   Operating Point                     Rotating Frame? Derivative Order Description
   ---------- ---------------                     --------------- ---------------- -----------
          1   -1.080E+01                                 F               0         X-component position of node 1 (hub), m
          2    0.000E+00                                 F               0         Y-component position of node 1 (hub), m
          3    1.497E+02                                 F               0         Z-component position of node 1 (hub), m
          4    2.687E+01                                 F               0         X-component position of node 2 (blade 1, node 1), m
          5   -1.180E+01                                 F               0         Y-component position of node 2 (blade 1, node 1), m
          6    1.516E+02                                 F               0         Z-component position of node 2 (blade 1, node 1), m
          7    2.706E+01                                 F               0         X-component position of node 3 (blade 1, node 2), m
          8   -1.299E+01                                 F               0         Y-component position of node 3 (blade 1, node 2), m
          9    1.522E+02                                 F               0         Z-component position of node 3 (blade 1, node 2), m
         10    2.962E+01                                 F               0         X-component position of node 4 (blade 1, node 3), m
         11   -2.910E+01                                 F               0         Y-component position of node 4 (blade 1, node 3), m
         12    1.601E+02                                 F               0         Z-component position of node 4 (blade 1, node 3), m
         13    3.017E+01                                 F               0         X-component position of node 5 (blade 1, node 4), m
         14   -3.253E+01                                 F               0         Y-component position of node 5 (blade 1, node 4), m
         15    1.618E+02                                 F               0         Z-component position of node 5 (blade 1, node 4), m
         16    3.071E+01                                 F               0         X-component position of node 6 (blade 1, node 5), m
         17   -3.597E+01                                 F               0         Y-component position of node 6 (blade 1, node 5), m
         18    1.635E+02                                 F               0         Z-component position of node 6 (blade 1, node 5), m
         19    3.126E+01                                 F               0         X-component position of node 7 (blade 1, node 6), m
         20   -3.940E+01                                 F               0         Y-component position of node 7 (blade 1, node 6), m
         21    1.652E+02                                 F               0         Z-component position of node 7 (blade 1, node 6), m
         22    3.180E+01                                 F               0         X-component position of node 8 (blade 1, node 7), m
         23   -4.283E+01                                 F               0         Y-component position of node 8 (blade 1, node 7), m
         24    1.669E+02                                 F               0         Z-component position of node 8 (blade 1, node 7), m
         25    3.235E+01                                 F               0         X-component position of node 9 (blade 1, node 8), m
         26   -4.626E+01                                 F               0         Y-component position of node 9 (blade 1, node 8), m
         27    1.686E+02                                 F               0         Z-component position of node 9 (blade 1, node 8), m
         28    3.290E+01                                 F               0         X-component position of node 10 (blade 1, node 9), m
         29   -4.970E+01                                 F               0         Y-component position of node 10 (blade 1, node 9), m
         30    1.703E+02                                 F               0         Z-component position of node 10 (blade 1, node 9), m
         31    3.344E+01                                 F               0         X-component position of node 11 (blade 1, node 10), m
         32   -5.313E+01                                 F               0         Y-component position of node 11 (blade 1, node 10), m
         33    1.720E+02                                 F               0         Z-component position of node 11 (blade 1, node 10), m
         34    3.399E+01                                 F               0         X-component position of node 12 (blade 1, node 11), m
         35   -5.656E+01                                 F               0         Y-component position of node 12 (blade 1, node 11), m
         36    1.737E+02                                 F               0         Z-component position of node 12 (blade 1, node 11), m
         37    3.453E+01                                 F               0         X-component position of node 13 (blade 1, node 12), m
         38   -5.999E+01                                 F               0         Y-component position of node 13 (blade 1, node 12), m
         39    1.754E+02                                 F               0         Z-component position of node 13 (blade 1, node 12), m
         40    3.508E+01                                 F               0         X-component position of node 14 (blade 1, node 13), m
         41   -6.343E+01                                 F               0         Y-component position of node 14 (blade 1, node 13), m
         42    1.771E+02                                 F               0         Z-component position of node 14 (blade 1, node 13), m
         43    3.562E+01                                 F               0         X-component position of node 15 (blade 1, node 14), m
         44   -6.686E+01                                 F               0         Y-component position of node 15 (blade 1, node 14), m
         45    1.788E+02                                 F               0         Z-component position of node 15 (blade 1, node 14), m
         46    3.617E+01                                 F               0         X-component position of node 16 (blade 1, node 15), m
         47   -7.029E+01                                 F               0         Y-component position of node 16 (blade 1, node 15), m
         48    1.805E+02                                 F               0         Z-component position of node 16 (blade 1, node 15), m
         49    3.671E+01                                 F               0         X-component position of node 17 (blade 1, node 16), m
         50   -7.373E+01                                 F               0         Y-component position of node 17 (blade 1, node 16), m
         51    1.822E+02                                 F               0         Z-component position of node 17 (blade 1, node 16), m
         52    3.726E+01                                 F               0         X-component position of node 18 (blade 1, node 17), m
         53   -7.716E+01                                 F               0         Y-component position of node 18 (blade 1, node 17), m
         54    1.839E+02                                 F               0         Z-component position of node 18 (blade 1, node 17), m
         55    3.781E+01                                 F               0         X-component position of node 19 (blade 1, node 18), m
         56   -8.059E+01                                 F               0         Y-component position of node 19 (blade 1, node 18), m
         57    1.856E+02                                 F               0         Z-component position of node 19 (blade 1, node 18), m
         58    3.835E+01                                 F               0         X-component position of node 20 (blade 1, node 19), m
         59   -8.402E+01                                 F               0         Y-component position of node 20 (blade 1, node 19), m
         60    1.873E+02                                 F               0         Z-component position of node 20 (blade 1, node 19), m
         61    3.890E+01                                 F               0         X-component position of node 21 (blade 1, node 20), m
         62   -8.746E+01                                 F               0         Y-component position of node 21 (blade 1, node 20), m
         63    1.890E+02                                 F               0         Z-component position of node 21 (blade 1, node 20), m
         64    3.944E+01                                 F               0         X-component position of node 22 (blade 1, node 21), m
         65   -9.089E+01                                 F               0         Y-component position of node 22 (blade 1, node 21), m
         66    1.907E+02                                 F               0         Z-component position of node 22 (blade 1, node 21), m
         67    3.999E+01                                 F               0         X-component position of node 23 (blade 1, node 22), m
         68   -9.432E+01                                 F               0         Y-component position of node 23 (blade 1, node 22), m
         69    1.923E+02                                 F               0         Z-component position of node 23 (blade 1, node 22), m
         70    4.053E+01                                 F               0         X-component position of node 24 (blade 1, node 23), m
         71   -9.776E+01                                 F               0         Y-component position of node 24 (blade 1, node 23), m
         72    1.940E+02                                 F               0         Z-component position of node 24 (blade 1, node 23), m
         73    4.108E+01                                 F               0         X-component position of node 25 (blade 1, node 24), m
         74   -1.012E+02                                 F               0         Y-component position of node 25 (blade 1, node 24), m
         75    1.957E+02                                 F               0         Z-component position of node 25 (blade 1, node 24), m
         76    4.162E+01                                 F               0         X-component position of node 26 (blade 1, node 25), m
         77   -1.046E+02                                 F               0         Y-component position of node 26 (blade 1, node 25), m
         78    1.974E+02                                 F               0         Z-component position of node 26 (blade 1, node 25), m
         79    4.217E+01                                 F               0         X-component position of node 27 (blade 1, node 26), m
         80   -1.081E+02                                 F               0         Y-component position of node 27 (blade 1, node 26), m
         81    1.991E+02                                 F               0         Z-component position of node 27 (blade 1, node 26), m
         82    4.272E+01                                 F               0         X-component position of node 28 (blade 1, node 27), m
         83   -1.115E+02                                 F               0         Y-component position of node 28 (blade 1, node 27), m
         84    2.008E+02                                 F               0         Z-component position of node 28 (blade 1, node 27), m
         85    4.318E+01                                 F               0         X-component position of node 29 (blade 1, node 28), m
         86   -1.144E+02                                 F               0         Y-component position of node 29 (blade 1, node 28), m
         87    2.023E+02                                 F               0         Z-component position of node 29 (blade 1, node 28), m
         88    2.459E+01                                 F               0         X-component position of node 30 (blade 2, node 1), m
         89   -6.636E+00                                 F               0         Y-component position of node 30 (blade 2, node 1), m
         90    1.438E+02                                 F               0         Z-component position of node 30 (blade 2, node 1), m
         91    2.423E+01                                 F               0         X-component position of node 31 (blade 2, node 2), m
         92   -6.576E+00                                 F               0         Y-component position of node 31 (blade 2, node 2), m
         93    1.425E+02                                 F               0         Z-component position of node 31 (blade 2, node 2), m
         94    1.933E+01                                 F               0         X-component position of node 32 (blade 2, node 3), m
         95   -5.756E+00                                 F               0         Y-component position of node 32 (blade 2, node 3), m
         96    1.251E+02                                 F               0         Z-component position of node 32 (blade 2, node 3), m
         97    1.828E+01                                 F               0         X-component position of node 33 (blade 2, node 4), m
         98   -5.582E+00                                 F               0         Y-component position of node 33 (blade 2, node 4), m
         99    1.214E+02                                 F               0         Z-component position of node 33 (blade 2, node 4), m
        100    1.724E+01                                 F               0         X-component position of node 34 (blade 2, node 5), m
        101   -5.407E+00                                 F               0         Y-component position of node 34 (blade 2, node 5), m
        102    1.176E+02                                 F               0         Z-component position of node 34 (blade 2, node 5), m
        103    1.619E+01                                 F               0         X-component position of node 35 (blade 2, node 6), m
        104   -5.232E+00                                 F               0         Y-component position of node 35 (blade 2, node 6), m
        105    1.139E+02                                 F               0         Z-component position of node 35 (blade 2, node 6), m
        106    1.515E+01                                 F               0         X-component position of node 36 (blade 2, node 7), m
        107   -5.058E+00                                 F               0         Y-component position of node 36 (blade 2, node 7), m
        108    1.102E+02                                 F               0         Z-component position of node 36 (blade 2, node 7), m
        109    1.410E+01                                 F               0         X-component position of node 37 (blade 2, node 8), m
        110   -4.883E+00                                 F               0         Y-component position of node 37 (blade 2, node 8), m
        111    1.065E+02                                 F               0         Z-component position of node 37 (blade 2, node 8), m
        112    1.306E+01                                 F               0         X-component position of node 38 (blade 2, node 9), m
        113   -4.709E+00                                 F               0         Y-component position of node 38 (blade 2, node 9), m
        114    1.028E+02                                 F               0         Z-component position of node 38 (blade 2, node 9), m
        115    1.201E+01                                 F               0         X-component position of node 39 (blade 2, node 10), m
        116   -4.534E+00                                 F               0         Y-component position of node 39 (blade 2, node 10), m
        117    9.903E+01                                 F               0         Z-component position of node 39 (blade 2, node 10), m
        118    1.097E+01                                 F               0         X-component position of node 40 (blade 2, node 11), m
        119   -4.359E+00                                 F               0         Y-component position of node 40 (blade 2, node 11), m
        120    9.532E+01                                 F               0         Z-component position of node 40 (blade 2, node 11), m
        121    9.921E+00                                 F               0         X-component position of node 41 (blade 2, node 12), m
        122   -4.185E+00                                 F               0         Y-component position of node 41 (blade 2, node 12), m
        123    9.160E+01                                 F               0         Z-component position of node 41 (blade 2, node 12), m
        124    8.876E+00                                 F               0         X-component position of node 42 (blade 2, node 13), m
        125   -4.010E+00                                 F               0         Y-component position of node 42 (blade 2, node 13), m
        126    8.788E+01                                 F               0         Z-component position of node 42 (blade 2, node 13), m
        127    7.831E+00                                 F               0         X-component position of node 43 (blade 2, node 14), m
        128   -3.835E+00                                 F               0         Y-component position of node 43 (blade 2, node 14), m
        129    8.416E+01                                 F               0         Z-component position of node 43 (blade 2, node 14), m
        130    6.785E+00                                 F               0         X-component position of node 44 (blade 2, node 15), m
        131   -3.661E+00                                 F               0         Y-component position of node 44 (blade 2, node 15), m
        132    8.044E+01                                 F               0         Z-component position of node 44 (blade 2, node 15), m
        133    5.740E+00                                 F               0         X-component position of node 45 (blade 2, node 16), m
        134   -3.486E+00                                 F               0         Y-component position of node 45 (blade 2, node 16), m
        135    7.672E+01                                 F               0         Z-component position of node 45 (blade 2, node 16), m
        136    4.695E+00                                 F               0         X-component position of node 46 (blade 2, node 17), m
        137   -3.311E+00                                 F               0         Y-component position of node 46 (blade 2, node 17), m
        138    7.300E+01                                 F               0         Z-component position of node 46 (blade 2, node 17), m
        139    3.650E+00                                 F               0         X-component position of node 47 (blade 2, node 18), m
        140   -3.137E+00                                 F               0         Y-component position of node 47 (blade 2, node 18), m
        141    6.928E+01                                 F               0         Z-component position of node 47 (blade 2, node 18), m
        142    2.604E+00                                 F               0         X-component position of node 48 (blade 2, node 19), m
        143   -2.962E+00                                 F               0         Y-component position of node 48 (blade 2, node 19), m
        144    6.556E+01                                 F               0         Z-component position of node 48 (blade 2, node 19), m
        145    1.559E+00                                 F               0         X-component position of node 49 (blade 2, node 20), m
        146   -2.787E+00                                 F               0         Y-component position of node 49 (blade 2, node 20), m
        147    6.184E+01                                 F               0         Z-component position of node 49 (blade 2, node 20), m
        148    5.141E-01                                 F               0         X-component position of node 50 (blade 2, node 21), m
        149   -2.613E+00                                 F               0         Y-component position of node 50 (blade 2, node 21), m
        150    5.812E+01                                 F               0         Z-component position of node 50 (blade 2, node 21), m
        151   -5.313E-01                                 F               0         X-component position of node 51 (blade 2, node 22), m
        152   -2.438E+00                                 F               0         Y-component position of node 51 (blade 2, node 22), m
        153    5.440E+01                                 F               0         Z-component position of node 51 (blade 2, node 22), m
        154   -1.576E+00                                 F               0         X-component position of node 52 (blade 2, node 23), m
        155   -2.264E+00                                 F               0         Y-component position of node 52 (blade 2, node 23), m
        156    5.068E+01                                 F               0         Z-component position of node 52 (blade 2, node 23), m
        157   -2.622E+00                                 F               0         X-component position of node 53 (blade 2, node 24), m
        158   -2.089E+00                                 F               0         Y-component position of node 53 (blade 2, node 24), m
        159    4.696E+01                                 F               0         Z-component position of node 53 (blade 2, node 24), m
        160   -3.667E+00                                 F               0         X-component position of node 54 (blade 2, node 25), m
        161   -1.914E+00                                 F               0         Y-component position of node 54 (blade 2, node 25), m
        162    4.324E+01                                 F               0         Z-component position of node 54 (blade 2, node 25), m
        163   -4.712E+00                                 F               0         X-component position of node 55 (blade 2, node 26), m
        164   -1.740E+00                                 F               0         Y-component position of node 55 (blade 2, node 26), m
        165    3.952E+01                                 F               0         Z-component position of node 55 (blade 2, node 26), m
        166   -5.757E+00                                 F               0         X-component position of node 56 (blade 2, node 27), m
        167   -1.565E+00                                 F               0         Y-component position of node 56 (blade 2, node 27), m
        168    3.580E+01                                 F               0         Z-component position of node 56 (blade 2, node 27), m
        169   -6.643E+00                                 F               0         X-component position of node 57 (blade 2, node 28), m
        170   -1.417E+00                                 F               0         Y-component position of node 57 (blade 2, node 28), m
        171    3.265E+01                                 F               0         Z-component position of node 57 (blade 2, node 28), m
        172    2.681E+01                                 F               0         X-component position of node 58 (blade 3, node 1), m
        173   -2.220E+00                                 F               0         Y-component position of node 58 (blade 3, node 1), m
        174    1.520E+02                                 F               0         Z-component position of node 58 (blade 3, node 1), m
        175    2.698E+01                                 F               0         X-component position of node 59 (blade 3, node 2), m
        176   -1.095E+00                                 F               0         Y-component position of node 59 (blade 3, node 2), m
        177    1.527E+02                                 F               0         Z-component position of node 59 (blade 3, node 2), m
        178    2.932E+01                                 F               0         X-component position of node 60 (blade 3, node 3), m
        179    1.420E+01                                 F               0         Y-component position of node 60 (blade 3, node 3), m
        180    1.622E+02                                 F               0         Z-component position of node 60 (blade 3, node 3), m
        181    2.982E+01                                 F               0         X-component position of node 61 (blade 3, node 4), m
        182    1.745E+01                                 F               0         Y-component position of node 61 (blade 3, node 4), m
        183    1.643E+02                                 F               0         Z-component position of node 61 (blade 3, node 4), m
        184    3.032E+01                                 F               0         X-component position of node 62 (blade 3, node 5), m
        185    2.071E+01                                 F               0         Y-component position of node 62 (blade 3, node 5), m
        186    1.663E+02                                 F               0         Z-component position of node 62 (blade 3, node 5), m
        187    3.082E+01                                 F               0         X-component position of node 63 (blade 3, node 6), m
        188    2.397E+01                                 F               0         Y-component position of node 63 (blade 3, node 6), m
        189    1.683E+02                                 F               0         Z-component position of node 63 (blade 3, node 6), m
        190    3.132E+01                                 F               0         X-component position of node 64 (blade 3, node 7), m
        191    2.723E+01                                 F               0         Y-component position of node 64 (blade 3, node 7), m
        192    1.703E+02                                 F               0         Z-component position of node 64 (blade 3, node 7), m
        193    3.182E+01                                 F               0         X-component position of node 65 (blade 3, node 8), m
        194    3.049E+01                                 F               0         Y-component position of node 65 (blade 3, node 8), m
        195    1.724E+02                                 F               0         Z-component position of node 65 (blade 3, node 8), m
        196    3.232E+01                                 F               0         X-component position of node 66 (blade 3, node 9), m
        197    3.375E+01                                 F               0         Y-component position of node 66 (blade 3, node 9), m
        198    1.744E+02                                 F               0         Z-component position of node 66 (blade 3, node 9), m
        199    3.282E+01                                 F               0         X-component position of node 67 (blade 3, node 10), m
        200    3.700E+01                                 F               0         Y-component position of node 67 (blade 3, node 10), m
        201    1.764E+02                                 F               0         Z-component position of node 67 (blade 3, node 10), m
        202    3.332E+01                                 F               0         X-component position of node 68 (blade 3, node 11), m
        203    4.026E+01                                 F               0         Y-component position of node 68 (blade 3, node 11), m
        204    1.784E+02                                 F               0         Z-component position of node 68 (blade 3, node 11), m
        205    3.382E+01                                 F               0         X-component position of node 69 (blade 3, node 12), m
        206    4.352E+01                                 F               0         Y-component position of node 69 (blade 3, node 12), m
        207    1.804E+02                                 F               0         Z-component position of node 69 (blade 3, node 12), m
        208    3.432E+01                                 F               0         X-component position of node 70 (blade 3, node 13), m
        209    4.678E+01                                 F               0         Y-component position of node 70 (blade 3, node 13), m
        210    1.825E+02                                 F               0         Z-component position of node 70 (blade 3, node 13), m
        211    3.482E+01                                 F               0         X-component position of node 71 (blade 3, node 14), m