
Linearized model: Predictions were generated on 12-Feb-2024 at 15:30:16 using OpenFAST, compiled as a 64-bit application using single precision at commit v3.5.1
 linked with  NWTC Subroutine Library; ElastoDyn; InflowWind; AeroDyn; ServoDyn; HydroDyn; MAP++ (<1.20.10>, <Oct-20-2023>)

Description from the FAST input file: CCT-9 Campign 4 model. Input files to be run with OpenFAST 3.5.0. GitHub branch from Lu Wang (https://github.com/luwang00/openfast/tree/dev) compiled on March 7, 2023.

Simulation information:
   Simulation time:                  1004.9750 s
   Rotor Speed:                         1.0406 rad/s
   Azimuth:                             6.2221 rad
   Wind Speed:                         12.0000 m/s
   Number of continuous states:        22
   Number of discrete states:           0
   Number of constraint states:         0
   Number of inputs:                 3988
   Number of outputs:                  42
   Jacobians included in this file?    No

Order of continuous states:
   Row/Column Operating Point                     Rotating Frame? Derivative Order Description
   ---------- ---------------                     --------------- ---------------- -----------
          1    1.229E+01                                 F               2         ED Platform horizontal surge translation DOF (internal DOF index = DOF_Sg), m
          2   -2.196E-01                                 F               2         ED Platform horizontal sway translation DOF (internal DOF index = DOF_Sw), m
          3   -2.582E-01                                 F               2         ED Platform vertical heave translation DOF (internal DOF index = DOF_Hv), m
          4    5.221E-02                                 F               2         ED Platform roll tilt rotation DOF (internal DOF index = DOF_R), rad
          5    1.569E-01                                 F               2         ED Platform pitch tilt rotation DOF (internal DOF index = DOF_P), rad
          6    9.638E-03                                 F               2         ED Platform yaw rotation DOF (internal DOF index = DOF_Y), rad
          7    1.084E+00                                 F               2         ED 1st tower fore-aft bending mode DOF (internal DOF index = DOF_TFA1), m
          8    2.217E-01                                 F               2         ED 1st tower side-to-side bending mode DOF (internal DOF index = DOF_TSS1), m
          9    1.608E-03                                 F               2         ED 2nd tower fore-aft bending mode DOF (internal DOF index = DOF_TFA2), m
         10    9.564E-05                                 F               2         ED 2nd tower side-to-side bending mode DOF (internal DOF index = DOF_TSS2), m
         11    4.651E+00                                 F               2         ED Variable speed generator DOF (internal DOF index = DOF_GeAz), rad
         12   -1.025E-03                                 F               2         ED First time derivative of Platform horizontal surge translation DOF (internal DOF index = DOF_Sg), m/s
         13    1.369E-04                                 F               2         ED First time derivative of Platform horizontal sway translation DOF (internal DOF index = DOF_Sw), m/s
         14    2.946E-03                                 F               2         ED First time derivative of Platform vertical heave translation DOF (internal DOF index = DOF_Hv), m/s
         15    1.031E-03                                 F               2         ED First time derivative of Platform roll tilt rotation DOF (internal DOF index = DOF_R), rad/s
         16   -1.063E-04                                 F               2         ED First time derivative of Platform pitch tilt rotation DOF (internal DOF index = DOF_P), rad/s
         17   -3.426E-05                                 F               2         ED First time derivative of Platform yaw rotation DOF (internal DOF index = DOF_Y), rad/s
         18    1.845E-03                                 F               2         ED First time derivative of 1st tower fore-aft bending mode DOF (internal DOF index = DOF_TFA1), m/s
         19    6.917E-03                                 F               2         ED First time derivative of 1st tower side-to-side bending mode DOF (internal DOF index = DOF_TSS1), m/s
         20    5.038E-06                                 F               2         ED First time derivative of 2nd tower fore-aft bending mode DOF (internal DOF index = DOF_TFA2), m/s
         21    1.505E-06                                 F               2         ED First time derivative of 2nd tower side-to-side bending mode DOF (internal DOF index = DOF_TSS2), m/s
         22    1.041E+00                                 F               2         ED First time derivative of Variable speed generator DOF (internal DOF index = DOF_GeAz), rad/s

Order of continuous state derivatives:
   Row/Column Operating Point                     Rotating Frame? Derivative Order Description
   ---------- ---------------                     --------------- ---------------- -----------
          1   -1.025E-03                                 F               2         First time derivative of ED Platform horizontal surge translation DOF (internal DOF index = DOF_Sg), m/s
          2    1.369E-04                                 F               2         First time derivative of ED Platform horizontal sway translation DOF (internal DOF index = DOF_Sw), m/s
          3    2.946E-03                                 F               2         First time derivative of ED Platform vertical heave translation DOF (internal DOF index = DOF_Hv), m/s
          4    1.031E-03                                 F               2         First time derivative of ED Platform roll tilt rotation DOF (internal DOF index = DOF_R), rad/s
          5   -1.063E-04                                 F               2         First time derivative of ED Platform pitch tilt rotation DOF (internal DOF index = DOF_P), rad/s
          6   -3.426E-05                                 F               2         First time derivative of ED Platform yaw rotation DOF (internal DOF index = DOF_Y), rad/s
          7    1.845E-03                                 F               2         First time derivative of ED 1st tower fore-aft bending mode DOF (internal DOF index = DOF_TFA1), m/s
          8    6.917E-03                                 F               2         First time derivative of ED 1st tower side-to-side bending mode DOF (internal DOF index = DOF_TSS1), m/s
          9    5.038E-06                                 F               2         First time derivative of ED 2nd tower fore-aft bending mode DOF (internal DOF index = DOF_TFA2), m/s
         10    1.505E-06                                 F               2         First time derivative of ED 2nd tower side-to-side bending mode DOF (internal DOF index = DOF_TSS2), m/s
         11    1.041E+00                                 F               2         First time derivative of ED Variable speed generator DOF (internal DOF index = DOF_GeAz), rad/s
         12    2.583E-04                                 F               2         First time derivative of ED First time derivative of Platform horizontal surge translation DOF (internal DOF index = DOF_Sg), m/s/s
         13    6.468E-04                                 F               2         First time derivative of ED First time derivative of Platform horizontal sway translation DOF (internal DOF index = DOF_Sw), m/s/s
         14    1.442E-03                                 F               2         First time derivative of ED First time derivative of Platform vertical heave translation DOF (internal DOF index = DOF_Hv), m/s/s
         15   -4.015E-04                                 F               2         First time derivative of ED First time derivative of Platform roll tilt rotation DOF (internal DOF index = DOF_R), rad/s/s
         16   -1.008E-05                                 F               2         First time derivative of ED First time derivative of Platform pitch tilt rotation DOF (internal DOF index = DOF_P), rad/s/s
         17    1.546E-04                                 F               2         First time derivative of ED First time derivative of Platform yaw rotation DOF (internal DOF index = DOF_Y), rad/s/s
         18    6.887E-04                                 F               2         First time derivative of ED First time derivative of 1st tower fore-aft bending mode DOF (internal DOF index = DOF_TFA1), m/s/s
         19    7.234E-04                                 F               2         First time derivative of ED First time derivative of 1st tower side-to-side bending mode DOF (internal DOF index = DOF_TSS1), m/s/s
         20    1.294E-05                                 F               2         First time derivative of ED First time derivative of 2nd tower fore-aft bending mode DOF (internal DOF index = DOF_TFA2), m/s/s
         21   -7.467E-07                                 F               2         First time derivative of ED First time derivative of 2nd tower side-to-side bending mode DOF (internal DOF index = DOF_TSS2), m/s/s
         22    3.848E-04                                 F               2         First time derivative of ED First time derivative of Variable speed generator DOF (internal DOF index = DOF_GeAz), rad/s/s

Order of inputs:
     Column   Operating Point                     Rotating Frame? Derivative Order Description
   ---------- ---------------                     --------------- ---------------- -----------
          1   -1.080E+01                                 F               0         IfW X-component position of node 1 (hub), m
          2    0.000E+00                                 F               0         IfW Y-component position of node 1 (hub), m
          3    1.497E+02                                 F               0         IfW Z-component position of node 1 (hub), m
          4    2.753E+01                                 F               0         IfW X-component position of node 2 (blade 1, node 1), m
          5   -8.149E+00                                 F               0         IfW Y-component position of node 2 (blade 1, node 1), m
          6    1.544E+02                                 F               0         IfW Z-component position of node 2 (blade 1, node 1), m
          7    2.789E+01                                 F               0         IfW X-component position of node 3 (blade 1, node 2), m
          8   -8.136E+00                                 F               0         IfW Y-component position of node 3 (blade 1, node 2), m
          9    1.557E+02                                 F               0         IfW Z-component position of node 3 (blade 1, node 2), m
         10    3.277E+01                                 F               0         IfW X-component position of node 4 (blade 1, node 3), m
         11   -7.963E+00                                 F               0         IfW Y-component position of node 4 (blade 1, node 3), m
         12    1.732E+02                                 F               0         IfW Z-component position of node 4 (blade 1, node 3), m
         13    3.381E+01                                 F               0         IfW X-component position of node 5 (blade 1, node 4), m
         14   -7.926E+00                                 F               0         IfW Y-component position of node 5 (blade 1, node 4), m
         15    1.769E+02                                 F               0         IfW Z-component position of node 5 (blade 1, node 4), m
         16    3.485E+01                                 F               0         IfW X-component position of node 6 (blade 1, node 5), m
         17   -7.889E+00                                 F               0         IfW Y-component position of node 6 (blade 1, node 5), m
         18    1.806E+02                                 F               0         IfW Z-component position of node 6 (blade 1, node 5), m
         19    3.589E+01                                 F               0         IfW X-component position of node 7 (blade 1, node 6), m
         20   -7.852E+00                                 F               0         IfW Y-component position of node 7 (blade 1, node 6), m
         21    1.844E+02                                 F               0         IfW Z-component position of node 7 (blade 1, node 6), m
         22    3.693E+01                                 F               0         IfW X-component position of node 8 (blade 1, node 7), m
         23   -7.815E+00                                 F               0         IfW Y-component position of node 8 (blade 1, node 7), m
         24    1.881E+02                                 F               0         IfW Z-component position of node 8 (blade 1, node 7), m
         25    3.797E+01                                 F               0         IfW X-component position of node 9 (blade 1, node 8), m
         26   -7.778E+00                                 F               0         IfW Y-component position of node 9 (blade 1, node 8), m
         27    1.918E+02                                 F               0         IfW Z-component position of node 9 (blade 1, node 8), m
         28    3.901E+01                                 F               0         IfW X-component position of node 10 (blade 1, node 9), m
         29   -7.741E+00                                 F               0         IfW Y-component position of node 10 (blade 1, node 9), m
         30    1.955E+02                                 F               0         IfW Z-component position of node 10 (blade 1, node 9), m
         31    4.005E+01                                 F               0         IfW X-component position of node 11 (blade 1, node 10), m
         32   -7.704E+00                                 F               0         IfW Y-component position of node 11 (blade 1, node 10), m
         33    1.993E+02                                 F               0         IfW Z-component position of node 11 (blade 1, node 10), m
         34    4.110E+01                                 F               0         IfW X-component position of node 12 (blade 1, node 11), m
         35   -7.667E+00                                 F               0         IfW Y-component position of node 12 (blade 1, node 11), m
         36    2.030E+02                                 F               0         IfW Z-component position of node 12 (blade 1, node 11), m
         37    4.214E+01                                 F               0         IfW X-component position of node 13 (blade 1, node 12), m
         38   -7.630E+00                                 F               0         IfW Y-component position of node 13 (blade 1, node 12), m
         39    2.067E+02                                 F               0         IfW Z-component position of node 13 (blade 1, node 12), m
         40    4.318E+01                                 F               0         IfW X-component position of node 14 (blade 1, node 13), m
         41   -7.593E+00                                 F               0         IfW Y-component position of node 14 (blade 1, node 13), m
         42    2.104E+02                                 F               0         IfW Z-component position of node 14 (blade 1, node 13), m
         43    4.422E+01                                 F               0         IfW X-component position of node 15 (blade 1, node 14), m
         44   -7.556E+00                                 F               0         IfW Y-component position of node 15 (blade 1, node 14), m
         45    2.142E+02                                 F               0         IfW Z-component position of node 15 (blade 1, node 14), m
         46    4.526E+01                                 F               0         IfW X-component position of node 16 (blade 1, node 15), m
         47   -7.519E+00                                 F               0         IfW Y-component position of node 16 (blade 1, node 15), m
         48    2.179E+02                                 F               0         IfW Z-component position of node 16 (blade 1, node 15), m
         49    4.630E+01                                 F               0         IfW X-component position of node 17 (blade 1, node 16), m
         50   -7.482E+00                                 F               0         IfW Y-component position of node 17 (blade 1, node 16), m
         51    2.216E+02                                 F               0         IfW Z-component position of node 17 (blade 1, node 16), m
         52    4.734E+01                                 F               0         IfW X-component position of node 18 (blade 1, node 17), m
         53   -7.446E+00                                 F               0         IfW Y-component position of node 18 (blade 1, node 17), m
         54    2.253E+02                                 F               0         IfW Z-component position of node 18 (blade 1, node 17), m
         55    4.838E+01                                 F               0         IfW X-component position of node 19 (blade 1, node 18), m
         56   -7.409E+00                                 F               0         IfW Y-component position of node 19 (blade 1, node 18), m
         57    2.291E+02                                 F               0         IfW Z-component position of node 19 (blade 1, node 18), m
         58    4.942E+01                                 F               0         IfW X-component position of node 20 (blade 1, node 19), m
         59   -7.372E+00                                 F               0         IfW Y-component position of node 20 (blade 1, node 19), m
         60    2.328E+02                                 F               0         IfW Z-component position of node 20 (blade 1, node 19), m
         61    5.046E+01                                 F               0         IfW X-component position of node 21 (blade 1, node 20), m
         62   -7.335E+00                                 F               0         IfW Y-component position of node 21 (blade 1, node 20), m
         63    2.365E+02                                 F               0         IfW Z-component position of node 21 (blade 1, node 20), m
         64    5.150E+01                                 F               0         IfW X-component position of node 22 (blade 1, node 21), m
         65   -7.298E+00                                 F               0         IfW Y-component position of node 22 (blade 1, node 21), m
         66    2.402E+02                                 F               0         IfW Z-component position of node 22 (blade 1, node 21), m
         67    5.254E+01                                 F               0         IfW X-component position of node 23 (blade 1, node 22), m
         68   -7.261E+00                                 F               0         IfW Y-component position of node 23 (blade 1, node 22), m
         69    2.440E+02                                 F               0         IfW Z-component position of node 23 (blade 1, node 22), m
         70    5.358E+01                                 F               0         IfW X-component position of node 24 (blade 1, node 23), m
         71   -7.224E+00                                 F               0         IfW Y-component position of node 24 (blade 1, node 23), m
         72    2.477E+02                                 F               0         IfW Z-component position of node 24 (blade 1, node 23), m
         73    5.462E+01                                 F               0         IfW X-component position of node 25 (blade 1, node 24), m
         74   -7.187E+00                                 F               0         IfW Y-component position of node 25 (blade 1, node 24), m
         75    2.514E+02                                 F               0         IfW Z-component position of node 25 (blade 1, node 24), m
         76    5.567E+01                                 F               0         IfW X-component position of node 26 (blade 1, node 25), m
         77   -7.150E+00                                 F               0         IfW Y-component position of node 26 (blade 1, node 25), m
         78    2.551E+02                                 F               0         IfW Z-component position of node 26 (blade 1, node 25), m
         79    5.671E+01                                 F               0         IfW X-component position of node 27 (blade 1, node 26), m
         80   -7.113E+00                                 F               0         IfW Y-component position of node 27 (blade 1, node 26), m
         81    2.589E+02                                 F               0         IfW Z-component position of node 27 (blade 1, node 26), m
         82    5.775E+01                                 F               0         IfW X-component position of node 28 (blade 1, node 27), m
         83   -7.076E+00                                 F               0         IfW Y-component position of node 28 (blade 1, node 27), m
         84    2.626E+02                                 F               0         IfW Z-component position of node 28 (blade 1, node 27), m
         85    5.863E+01                                 F               0         IfW X-component position of node 29 (blade 1, node 28), m
         86   -7.045E+00                                 F               0         IfW Y-component position of node 29 (blade 1, node 28), m
         87    2.657E+02                                 F               0         IfW Z-component position of node 29 (blade 1, node 28), m
         88    2.539E+01                                 F               0         IfW X-component position of node 30 (blade 2, node 1), m
         89   -1.302E+01                                 F               0         IfW Y-component position of node 30 (blade 2, node 1), m
         90    1.464E+02                                 F               0         IfW Z-component position of node 30 (blade 2, node 1), m
         91    2.524E+01                                 F               0         IfW X-component position of node 31 (blade 2, node 2), m
         92   -1.419E+01                                 F               0         IfW Y-component position of node 31 (blade 2, node 2), m
         93    1.458E+02                                 F               0         IfW Z-component position of node 31 (blade 2, node 2), m
         94    2.313E+01                                 F               0         IfW X-component position of node 32 (blade 2, node 3), m
         95   -2.999E+01                                 F               0         IfW Y-component position of node 32 (blade 2, node 3), m
         96    1.371E+02                                 F               0         IfW Z-component position of node 32 (blade 2, node 3), m
         97    2.269E+01                                 F               0         IfW X-component position of node 33 (blade 2, node 4), m
         98   -3.336E+01                                 F               0         IfW Y-component position of node 33 (blade 2, node 4), m
         99    1.353E+02                                 F               0         IfW Z-component position of node 33 (blade 2, node 4), m
        100    2.224E+01                                 F               0         IfW X-component position of node 34 (blade 2, node 5), m
        101   -3.672E+01                                 F               0         IfW Y-component position of node 34 (blade 2, node 5), m
        102    1.334E+02                                 F               0         IfW Z-component position of node 34 (blade 2, node 5), m
        103    2.179E+01                                 F               0         IfW X-component position of node 35 (blade 2, node 6), m
        104   -4.009E+01                                 F               0         IfW Y-component position of node 35 (blade 2, node 6), m
        105    1.316E+02                                 F               0         IfW Z-component position of node 35 (blade 2, node 6), m
        106    2.134E+01                                 F               0         IfW X-component position of node 36 (blade 2, node 7), m
        107   -4.346E+01                                 F               0         IfW Y-component position of node 36 (blade 2, node 7), m
        108    1.297E+02                                 F               0         IfW Z-component position of node 36 (blade 2, node 7), m
        109    2.089E+01                                 F               0         IfW X-component position of node 37 (blade 2, node 8), m
        110   -4.683E+01                                 F               0         IfW Y-component position of node 37 (blade 2, node 8), m
        111    1.279E+02                                 F               0         IfW Z-component position of node 37 (blade 2, node 8), m
        112    2.045E+01                                 F               0         IfW X-component position of node 38 (blade 2, node 9), m
        113   -5.019E+01                                 F               0         IfW Y-component position of node 38 (blade 2, node 9), m
        114    1.260E+02                                 F               0         IfW Z-component position of node 38 (blade 2, node 9), m
        115    2.000E+01                                 F               0         IfW X-component position of node 39 (blade 2, node 10), m
        116   -5.356E+01                                 F               0         IfW Y-component position of node 39 (blade 2, node 10), m
        117    1.242E+02                                 F               0         IfW Z-component position of node 39 (blade 2, node 10), m
        118    1.955E+01                                 F               0         IfW X-component position of node 40 (blade 2, node 11), m
        119   -5.693E+01                                 F               0         IfW Y-component position of node 40 (blade 2, node 11), m
        120    1.223E+02                                 F               0         IfW Z-component position of node 40 (blade 2, node 11), m
        121    1.910E+01                                 F               0         IfW X-component position of node 41 (blade 2, node 12), m
        122   -6.030E+01                                 F               0         IfW Y-component position of node 41 (blade 2, node 12), m
        123    1.205E+02                                 F               0         IfW Z-component position of node 41 (blade 2, node 12), m
        124    1.865E+01                                 F               0         IfW X-component position of node 42 (blade 2, node 13), m
        125   -6.366E+01                                 F               0         IfW Y-component position of node 42 (blade 2, node 13), m
        126    1.186E+02                                 F               0         IfW Z-component position of node 42 (blade 2, node 13), m
        127    1.820E+01                                 F               0         IfW X-component position of node 43 (blade 2, node 14), m
        128   -6.703E+01                                 F               0         IfW Y-component position of node 43 (blade 2, node 14), m
        129    1.168E+02                                 F               0         IfW Z-component position of node 43 (blade 2, node 14), m
        130    1.776E+01                                 F               0         IfW X-component position of node 44 (blade 2, node 15), m
        131   -7.040E+01                                 F               0         IfW Y-component position of node 44 (blade 2, node 15), m
        132    1.149E+02                                 F               0         IfW Z-component position of node 44 (blade 2, node 15), m
        133    1.731E+01                                 F               0         IfW X-component position of node 45 (blade 2, node 16), m
        134   -7.376E+01                                 F               0         IfW Y-component position of node 45 (blade 2, node 16), m
        135    1.131E+02                                 F               0         IfW Z-component position of node 45 (blade 2, node 16), m
        136    1.686E+01                                 F               0         IfW X-component position of node 46 (blade 2, node 17), m
        137   -7.713E+01                                 F               0         IfW Y-component position of node 46 (blade 2, node 17), m
        138    1.112E+02                                 F               0         IfW Z-component position of node 46 (blade 2, node 17), m
        139    1.641E+01                                 F               0         IfW X-component position of node 47 (blade 2, node 18), m
        140   -8.050E+01                                 F               0         IfW Y-component position of node 47 (blade 2, node 18), m
        141    1.094E+02                                 F               0         IfW Z-component position of node 47 (blade 2, node 18), m
        142    1.596E+01                                 F               0         IfW X-component position of node 48 (blade 2, node 19), m
        143   -8.387E+01                                 F               0         IfW Y-component position of node 48 (blade 2, node 19), m
        144    1.075E+02                                 F               0         IfW Z-component position of node 48 (blade 2, node 19), m