
Linearized model: Predictions were generated on 13-Feb-2024 at 11:29:37 using OpenFAST, compiled as a 64-bit application using single precision at commit v3.5.1
 linked with  NWTC Subroutine Library; ElastoDyn; InflowWind; AeroDyn; ServoDyn; HydroDyn; MAP++ (<1.20.10>, <Oct-20-2023>)

Description from the FAST input file: CCT-9 Campign 4 model. Input files to be run with OpenFAST 3.5.0. GitHub branch from Lu Wang (https://github.com/luwang00/openfast/tree/dev) compiled on March 7, 2023.

Simulation information:
   Simulation time:                  1212.1500 s
   Rotor Speed:                         0.7914 rad/s
   Azimuth:                             1.0489 rad
   Wind Speed:                         16.0000 m/s
   Number of continuous states:        14
   Number of discrete states:           0
   Number of constraint states:         0
   Number of inputs:                 1890
   Number of outputs:                  25
   Jacobians included in this file?    No

Order of continuous states:
   Row/Column Operating Point                                                   Rotating Frame? Derivative Order Description
   ---------- ---------------                                                   --------------- ---------------- -----------
          1     8.64539432526E+000                                                     F               2         Platform horizontal surge translation DOF (internal DOF index = DOF_Sg), m
          2    -6.19307756424E-001                                                     F               2         Platform horizontal sway translation DOF (internal DOF index = DOF_Sw), m
          3    -1.29365041852E-001                                                     F               2         Platform vertical heave translation DOF (internal DOF index = DOF_Hv), m
          4     5.17016313970E-002                                                     F               2         Platform roll tilt rotation DOF (internal DOF index = DOF_R), rad
          5     1.13026417792E-001                                                     F               2         Platform pitch tilt rotation DOF (internal DOF index = DOF_P), rad
          6     5.23338909261E-004                                                     F               2         Platform yaw rotation DOF (internal DOF index = DOF_Y), rad
          7     5.76128578186E+000                                                     F               2         Variable speed generator DOF (internal DOF index = DOF_GeAz), rad
          8    -8.60560103320E-005                                                     F               2         First time derivative of Platform horizontal surge translation DOF (internal DOF index = DOF_Sg), m/s
          9     6.46619126201E-004                                                     F               2         First time derivative of Platform horizontal sway translation DOF (internal DOF index = DOF_Sw), m/s
         10     5.62511791941E-004                                                     F               2         First time derivative of Platform vertical heave translation DOF (internal DOF index = DOF_Hv), m/s
         11    -3.90866771340E-005                                                     F               2         First time derivative of Platform roll tilt rotation DOF (internal DOF index = DOF_R), rad/s
         12    -2.14238502849E-006                                                     F               2         First time derivative of Platform pitch tilt rotation DOF (internal DOF index = DOF_P), rad/s
         13     9.86866871244E-006                                                     F               2         First time derivative of Platform yaw rotation DOF (internal DOF index = DOF_Y), rad/s
         14     7.91393339634E-001                                                     F               2         First time derivative of Variable speed generator DOF (internal DOF index = DOF_GeAz), rad/s

Order of continuous state derivatives:
   Row/Column Operating Point                                                   Rotating Frame? Derivative Order Description
   ---------- ---------------                                                   --------------- ---------------- -----------
          1    -8.60560103320E-005                                                     F               2         First time derivative of Platform horizontal surge translation DOF (internal DOF index = DOF_Sg), m/s
          2     6.46619126201E-004                                                     F               2         First time derivative of Platform horizontal sway translation DOF (internal DOF index = DOF_Sw), m/s
          3     5.62511791941E-004                                                     F               2         First time derivative of Platform vertical heave translation DOF (internal DOF index = DOF_Hv), m/s
          4    -3.90866771340E-005                                                     F               2         First time derivative of Platform roll tilt rotation DOF (internal DOF index = DOF_R), rad/s
          5    -2.14238502849E-006                                                     F               2         First time derivative of Platform pitch tilt rotation DOF (internal DOF index = DOF_P), rad/s
          6     9.86866871244E-006                                                     F               2         First time derivative of Platform yaw rotation DOF (internal DOF index = DOF_Y), rad/s
          7     7.91393339634E-001                                                     F               2         First time derivative of Variable speed generator DOF (internal DOF index = DOF_GeAz), rad/s
          8    -5.80602267291E-004                                                     F               2         First time derivative of First time derivative of Platform horizontal surge translation DOF (internal DOF index = DOF_Sg), m/s/s
          9     2.45061295573E-004                                                     F               2         First time derivative of First time derivative of Platform horizontal sway translation DOF (internal DOF index = DOF_Sw), m/s/s
         10    -2.02593486756E-003                                                     F               2         First time derivative of First time derivative of Platform vertical heave translation DOF (internal DOF index = DOF_Hv), m/s/s
         11    -9.32467628445E-006                                                     F               2         First time derivative of First time derivative of Platform roll tilt rotation DOF (internal DOF index = DOF_R), rad/s/s
         12    -3.17109806929E-005                                                     F               2         First time derivative of First time derivative of Platform pitch tilt rotation DOF (internal DOF index = DOF_P), rad/s/s
         13    -4.27077111453E-006                                                     F               2         First time derivative of First time derivative of Platform yaw rotation DOF (internal DOF index = DOF_Y), rad/s/s
         14    -4.61748306407E-004                                                     F               2         First time derivative of First time derivative of Variable speed generator DOF (internal DOF index = DOF_GeAz), rad/s/s

Order of inputs:
     Column   Operating Point                                                   Rotating Frame? Derivative Order Description
   ---------- ---------------                                                   --------------- ---------------- -----------
          1     2.09485092163E+002                                                     F               0         Blade 1 X force, node 1, N
          2     8.07735519409E+001                                                     F               0         Blade 1 Y force, node 1, N
          3     1.12979393005E+002                                                     F               0         Blade 1 Z force, node 1, N
          4     7.94804870605E+002                                                     F               0         Blade 1 X force, node 2, N
          5     1.37951507568E+002                                                     F               0         Blade 1 Y force, node 2, N
          6     8.87163543701E+001                                                     F               0         Blade 1 Z force, node 2, N
          7     9.49382324219E+002                                                     F               0         Blade 1 X force, node 3, N
          8     4.51102066040E+001                                                     F               0         Blade 1 Y force, node 3, N
          9    -1.35442443848E+002                                                     F               0         Blade 1 Z force, node 3, N
         10     1.18897607422E+003                                                     F               0         Blade 1 X force, node 4, N
         11    -3.09858570099E+001                                                     F               0         Blade 1 Y force, node 4, N
         12    -3.46098724365E+002                                                     F               0         Blade 1 Z force, node 4, N
         13     1.42858032227E+003                                                     F               0         Blade 1 X force, node 5, N
         14    -1.07082969666E+002                                                     F               0         Blade 1 Y force, node 5, N
         15    -5.56759582520E+002                                                     F               0         Blade 1 Z force, node 5, N
         16     1.66817663574E+003                                                     F               0         Blade 1 X force, node 6, N
         17    -1.83179840088E+002                                                     F               0         Blade 1 Y force, node 6, N
         18    -7.67418151855E+002                                                     F               0         Blade 1 Z force, node 6, N
         19     1.90775988770E+003                                                     F               0         Blade 1 X force, node 7, N
         20    -2.59275024414E+002                                                     F               0         Blade 1 Y force, node 7, N
         21    -9.78070251465E+002                                                     F               0         Blade 1 Z force, node 7, N
         22     2.14735351562E+003                                                     F               0         Blade 1 X force, node 8, N
         23    -3.35371093750E+002                                                     F               0         Blade 1 Y force, node 8, N
         24    -1.18872656250E+003                                                     F               0         Blade 1 Z force, node 8, N
         25     2.38694750977E+003                                                     F               0         Blade 1 X force, node 9, N
         26    -4.11467193604E+002                                                     F               0         Blade 1 Y force, node 9, N
         27    -1.39938293457E+003                                                     F               0         Blade 1 Z force, node 9, N
         28     2.62654125977E+003                                                     F               0         Blade 1 X force, node 10, N
         29    -4.87563232422E+002                                                     F               0         Blade 1 Y force, node 10, N
         30    -1.61003918457E+003                                                     F               0         Blade 1 Z force, node 10, N
         31     2.86613476562E+003                                                     F               0         Blade 1 X force, node 11, N
         32    -5.63659240723E+002                                                     F               0         Blade 1 Y force, node 11, N
         33    -1.82069555664E+003                                                     F               0         Blade 1 Z force, node 11, N
         34     3.10575000000E+003                                                     F               0         Blade 1 X force, node 12, N
         35    -6.39759887695E+002                                                     F               0         Blade 1 Y force, node 12, N
         36    -2.03136621094E+003                                                     F               0         Blade 1 Z force, node 12, N
         37     3.34534643555E+003                                                     F               0         Blade 1 X force, node 13, N
         38    -7.15856750488E+002                                                     F               0         Blade 1 Y force, node 13, N
         39    -2.24202465820E+003                                                     F               0         Blade 1 Z force, node 13, N
         40     3.58491894531E+003                                                     F               0         Blade 1 X force, node 14, N
         41    -7.91948425293E+002                                                     F               0         Blade 1 Y force, node 14, N
         42    -2.45266699219E+003                                                     F               0         Blade 1 Z force, node 14, N
         43     3.82453808594E+003                                                     F               0         Blade 1 X force, node 15, N
         44    -8.68050476074E+002                                                     F               0         Blade 1 Y force, node 15, N
         45    -2.66334106445E+003                                                     F               0         Blade 1 Z force, node 15, N
         46     4.06410522461E+003                                                     F               0         Blade 1 X force, node 16, N
         47    -9.44140258789E+002                                                     F               0         Blade 1 Y force, node 16, N
         48    -2.87397900391E+003                                                     F               0         Blade 1 Z force, node 16, N
         49     4.98755761719E+003                                                     F               0         Blade 1 X force, node 17, N
         50    -1.17914038086E+003                                                     F               0         Blade 1 Y force, node 17, N
         51    -3.56830468750E+003                                                     F               0         Blade 1 Z force, node 17, N
         52     3.78296215820E+003                                                     F               0         Blade 1 X force, node 18, N
         53    -8.76198852539E+002                                                     F               0         Blade 1 Y force, node 18, N
         54    -2.66986279297E+003                                                     F               0         Blade 1 Z force, node 18, N
         55     4.60992285156E+003                                                     F               0         Blade 1 X force, node 19, N
         56    -1.03388818359E+003                                                     F               0         Blade 1 Y force, node 19, N
         57    -3.18521459961E+003                                                     F               0         Blade 1 Z force, node 19, N
         58     3.90496728516E+003                                                     F               0         Blade 1 X force, node 20, N
         59    -8.48946289062E+002                                                     F               0         Blade 1 Y force, node 20, N
         60    -2.64398608398E+003                                                     F               0         Blade 1 Z force, node 20, N
         61     5.71358642578E+003                                                     F               0         Blade 1 X force, node 21, N
         62    -1.19820898438E+003                                                     F               0         Blade 1 Y force, node 21, N
         63    -3.77994238281E+003                                                     F               0         Blade 1 Z force, node 21, N
         64     4.97980468750E+003                                                     F               0         Blade 1 X force, node 22, N
         65    -1.00763647461E+003                                                     F               0         Blade 1 Y force, node 22, N
         66    -3.22047949219E+003                                                     F               0         Blade 1 Z force, node 22, N
         67     5.05632177734E+003                                                     F               0         Blade 1 X force, node 23, N
         68    -9.89863708496E+002                                                     F               0         Blade 1 Y force, node 23, N
         69    -3.20287695312E+003                                                     F               0         Blade 1 Z force, node 23, N
         70     5.21888867188E+003                                                     F               0         Blade 1 X force, node 24, N
         71    -9.88840393066E+002                                                     F               0         Blade 1 Y force, node 24, N
         72    -3.23958764648E+003                                                     F               0         Blade 1 Z force, node 24, N
         73     5.27568457031E+003                                                     F               0         Blade 1 X force, node 25, N
         74    -9.68600280762E+002                                                     F               0         Blade 1 Y force, node 25, N
         75    -3.21230346680E+003                                                     F               0         Blade 1 Z force, node 25, N
         76     5.35869580078E+003                                                     F               0         Blade 1 X force, node 26, N
         77    -9.53632019043E+002                                                     F               0         Blade 1 Y force, node 26, N
         78    -3.20190795898E+003                                                     F               0         Blade 1 Z force, node 26, N
         79     6.33127636719E+003                                                     F               0         Blade 1 X force, node 27, N
         80    -1.09013293457E+003                                                     F               0         Blade 1 Y force, node 27, N
         81    -3.70924853516E+003                                                     F               0         Blade 1 Z force, node 27, N
         82     4.62219140625E+003                                                     F               0         Blade 1 X force, node 28, N
         83    -7.71222290039E+002                                                     F               0         Blade 1 Y force, node 28, N
         84    -2.65826293945E+003                                                     F               0         Blade 1 Z force, node 28, N
         85     5.57831640625E+003                                                     F               0         Blade 1 X force, node 29, N
         86    -9.06471618652E+002                                                     F               0         Blade 1 Y force, node 29, N
         87    -3.15915405273E+003                                                     F               0         Blade 1 Z force, node 29, N
         88     4.68439208984E+003                                                     F               0         Blade 1 X force, node 30, N
         89    -7.41333496094E+002                                                     F               0         Blade 1 Y force, node 30, N
         90    -2.61280395508E+003                                                     F               0         Blade 1 Z force, node 30, N
         91     6.66236865234E+003                                                     F               0         Blade 1 X force, node 31, N
         92    -1.02235736084E+003                                                     F               0         Blade 1 Y force, node 31, N
         93    -3.65149609375E+003                                                     F               0         Blade 1 Z force, node 31, N
         94     5.75373632812E+003                                                     F               0         Blade 1 X force, node 32, N
         95    -8.56518310547E+002                                                     F               0         Blade 1 Y force, node 32, N
         96    -3.10022363281E+003                                                     F               0         Blade 1 Z force, node 32, N
         97     5.80277099609E+003                                                     F               0         Blade 1 X force, node 33, N
         98    -8.39340087891E+002                                                     F               0         Blade 1 Y force, node 33, N
         99    -3.07726562500E+003                                                     F               0         Blade 1 Z force, node 33, N
        100     5.85123193359E+003                                                     F               0         Blade 1 X force, node 34, N
        101    -8.22358581543E+002                                                     F               0         Blade 1 Y force, node 34, N
        102    -3.05456689453E+003                                                     F               0         Blade 1 Z force, node 34, N
        103     5.89143896484E+003                                                     F               0         Blade 1 X force, node 35, N
        104    -8.05304626465E+002                                                     F               0         Blade 1 Y force, node 35, N
        105    -3.02975439453E+003                                                     F               0         Blade 1 Z force, node 35, N
        106     5.92801611328E+003                                                     F               0         Blade 1 X force, node 36, N
        107    -7.88017822266E+002                                                     F               0         Blade 1 Y force, node 36, N
        108    -3.00360571289E+003                                                     F               0         Blade 1 Z force, node 36, N
        109     6.97109570312E+003                                                     F               0         Blade 1 X force, node 37, N
        110    -8.99259765625E+002                                                     F               0         Blade 1 Y force, node 37, N
        111    -3.47680688477E+003                                                     F               0         Blade 1 Z force, node 37, N
        112     4.98470996094E+003                                                     F               0         Blade 1 X force, node 38, N
        113    -6.24751281738E+002                                                     F               0         Blade 1 Y force, node 38, N
        114    -2.44925268555E+003                                                     F               0         Blade 1 Z force, node 38, N
        115     6.01166357422E+003                                                     F               0         Blade 1 X force, node 39, N
        116    -7.35355529785E+002                                                     F               0         Blade 1 Y force, node 39, N
        117    -2.91732080078E+003                                                     F               0         Blade 1 Z force, node 39, N
        118     5.04563671875E+003                                                     F               0         Blade 1 X force, node 40, N
        119    -6.02024475098E+002                                                     F               0         Blade 1 Y force, node 40, N
        120    -2.41793774414E+003                                                     F               0         Blade 1 Z force, node 40, N
        121     7.03375244141E+003                                                     F               0         Blade 1 X force, node 41, N
        122    -8.15174743652E+002                                                     F               0         Blade 1 Y force, node 41, N
        123    -3.32212597656E+003                                                     F               0         Blade 1 Z force, node 41, N
        124     6.05661279297E+003                                                     F               0         Blade 1 X force, node 42, N
        125    -6.82050354004E+002                                                     F               0         Blade 1 Y force, node 42, N
        126    -2.82050903320E+003                                                     F               0         Blade 1 Z force, node 42, N
        127     6.06495361328E+003                                                     F               0         Blade 1 X force, node 43, N
        128    -6.64396240234E+002                                                     F               0         Blade 1 Y force, node 43, N
        129    -2.78688500977E+003                                                     F               0         Blade 1 Z force, node 43, N
        130     6.10395898438E+003                                                     F               0         Blade 1 X force, node 44, N
        131    -6.50209167480E+002                                                     F               0         Blade 1 Y force, node 44, N
        132    -2.76756860352E+003                                                     F               0         Blade 1 Z force, node 44, N
        133     6.04170214844E+003                                                     F               0         Blade 1 X force, node 45, N
        134    -6.26289123535E+002                                                     F               0         Blade 1 Y force, node 45, N
        135    -2.70446533203E+003                                                     F               0         Blade 1 Z force, node 45, N
        136     6.07398144531E+003                                                     F               0         Blade 1 X force, node 46, N
        137    -6.12592407227E+002                                                     F               0         Blade 1 Y force, node 46, N
        138    -2.68453393555E+003                                                     F               0         Blade 1 Z force, node 46, N
        139     7.13084814453E+003                                                     F               0         Blade 1 X force, node 47, N
        140    -6.97861694336E+002                                                     F               0         Blade 1 Y force, node 47, N
        141    -3.10862841797E+003                                                     F               0         Blade 1 Z force, node 47, N
        142     5.01242871094E+003                                                     F               0         Blade 1 X force, node 48, N
        143    -4.76482818604E+002                                                     F               0         Blade 1 Y force, node 48, N
        144    -2.15676074219E+003                                                     F               0         Blade 1 Z force, node 48, N
        145     6.06161816406E+003                                                     F               0         Blade 1 X force, node 49, N
        146    -5.62237792969E+002                                                     F               0         Blade 1 Y force, node 49, N
        147    -2.58000439453E+003                                                     F               0         Blade 1 Z force, node 49, N
        148     5.10099755859E+003                                                     F               0         Blade 1 X force, node 50, N
        149    -4.61197418213E+002                                                     F               0         Blade 1 Y force, node 50, N
        150    -2.14705029297E+003                                                     F               0         Blade 1 Z force, node 50, N
        151     6.99584716797E+003                                                     F               0         Blade 1 X force, node 51, N
        152    -6.13767211914E+002                                                     F               0         Blade 1 Y force, node 51, N
        153    -2.90678393555E+003                                                     F               0         Blade 1 Z force, node 51, N
        154     6.02721582031E+003                                                     F               0         Blade 1 X force, node 52, N
        155    -5.13089965820E+002                                                     F               0         Blade 1 Y force, node 52, N
        156    -2.47265234375E+003                                                     F               0         Blade 1 Z force, node 52, N
        157     6.01083984375E+003                                                     F               0         Blade 1 X force, node 53, N
        158    -4.96912994385E+002                                                     F               0         Blade 1 Y force, node 53, N