
Linearized model: Predictions were generated on 13-Feb-2024 at 12:12:09 using OpenFAST, compiled as a 64-bit application using single precision at commit v3.5.1
 linked with  NWTC Subroutine Library; ElastoDyn; InflowWind; AeroDyn; ServoDyn; HydroDyn; MAP++ (<1.20.10>, <Oct-20-2023>)

Description from the FAST input file: CCT-9 Campign 4 model. Input files to be run with OpenFAST 3.5.0. GitHub branch from Lu Wang (https://github.com/luwang00/openfast/tree/dev) compiled on March 7, 2023.

Simulation information:
   Simulation time:                   773.7500 s
   Rotor Speed:                         0.7922 rad/s
   Azimuth:                             2.6244 rad
   Wind Speed:                         24.0000 m/s
   Number of continuous states:         0
   Number of discrete states:           0
   Number of constraint states:         0
   Number of inputs:                  303
   Number of outputs:                   1
   Jacobians included in this file?    No

Order of inputs:
     Column   Operating Point                                                   Rotating Frame? Derivative Order Description
   ---------- ---------------                                                   --------------- ---------------- -----------
          1    -1.08005075455E+001                                                     F               0         X-component position of node 1 (hub), m
          2     0.00000000000E+000                                                     F               0         Y-component position of node 1 (hub), m
          3     1.49740173340E+002                                                     F               0         Z-component position of node 1 (hub), m
          4     9.79653167725E+000                                                     F               0         X-component position of node 2 (blade 1, node 1), m
          5    -1.16716699600E+001                                                     F               0         Y-component position of node 2 (blade 1, node 1), m
          6     1.44899688721E+002                                                     F               0         Z-component position of node 2 (blade 1, node 1), m
          7     9.55152893066E+000                                                     F               0         X-component position of node 3 (blade 1, node 2), m
          8    -1.22629785538E+001                                                     F               0         Y-component position of node 3 (blade 1, node 2), m
          9     1.43728225708E+002                                                     F               0         Z-component position of node 3 (blade 1, node 2), m
         10     6.21991777420E+000                                                     F               0         X-component position of node 4 (blade 1, node 3), m
         11    -2.03037490845E+001                                                     F               0         Y-component position of node 4 (blade 1, node 3), m
         12     1.27798500061E+002                                                     F               0         Z-component position of node 4 (blade 1, node 3), m
         13     5.51010036469E+000                                                     F               0         X-component position of node 5 (blade 1, node 4), m
         14    -2.20168819427E+001                                                     F               0         Y-component position of node 5 (blade 1, node 4), m
         15     1.24404579163E+002                                                     F               0         Z-component position of node 5 (blade 1, node 4), m
         16     4.80014467239E+000                                                     F               0         X-component position of node 6 (blade 1, node 5), m
         17    -2.37303428650E+001                                                     F               0         Y-component position of node 6 (blade 1, node 5), m
         18     1.21010009766E+002                                                     F               0         Z-component position of node 6 (blade 1, node 5), m
         19     4.09032297134E+000                                                     F               0         X-component position of node 7 (blade 1, node 6), m
         20    -2.54434814453E+001                                                     F               0         Y-component position of node 7 (blade 1, node 6), m
         21     1.17616073608E+002                                                     F               0         Z-component position of node 7 (blade 1, node 6), m
         22     3.38049817085E+000                                                     F               0         X-component position of node 8 (blade 1, node 7), m
         23    -2.71566276550E+001                                                     F               0         Y-component position of node 8 (blade 1, node 7), m
         24     1.14222122192E+002                                                     F               0         Z-component position of node 8 (blade 1, node 7), m
         25     2.67054629326E+000                                                     F               0         X-component position of node 9 (blade 1, node 8), m
         26    -2.88700809479E+001                                                     F               0         Y-component position of node 9 (blade 1, node 8), m
         27     1.10827568054E+002                                                     F               0         Z-component position of node 9 (blade 1, node 8), m
         28     1.96072089672E+000                                                     F               0         X-component position of node 10 (blade 1, node 9), m
         29    -3.05832271576E+001                                                     F               0         Y-component position of node 10 (blade 1, node 9), m
         30     1.07433624268E+002                                                     F               0         Z-component position of node 10 (blade 1, node 9), m
         31     1.25089919567E+000                                                     F               0         X-component position of node 11 (blade 1, node 10), m
         32    -3.22963676453E+001                                                     F               0         Y-component position of node 11 (blade 1, node 10), m
         33     1.04039680481E+002                                                     F               0         Z-component position of node 11 (blade 1, node 10), m
         34     5.41073381901E-001                                                     F               0         X-component position of node 12 (blade 1, node 11), m
         35    -3.40095138550E+001                                                     F               0         Y-component position of node 12 (blade 1, node 11), m
         36     1.00645736694E+002                                                     F               0         Z-component position of node 12 (blade 1, node 11), m
         37    -1.68873235583E-001                                                     F               0         X-component position of node 13 (blade 1, node 12), m
         38    -3.57229614258E+001                                                     F               0         Y-component position of node 13 (blade 1, node 12), m
         39     9.72511901855E+001                                                     F               0         Z-component position of node 13 (blade 1, node 12), m
         40    -8.78699421883E-001                                                     F               0         X-component position of node 14 (blade 1, node 13), m
         41    -3.74361076355E+001                                                     F               0         Y-component position of node 14 (blade 1, node 13), m
         42     9.38572463989E+001                                                     F               0         Z-component position of node 14 (blade 1, node 13), m
         43    -1.58852088451E+000                                                     F               0         X-component position of node 15 (blade 1, node 14), m
         44    -3.91492500305E+001                                                     F               0         Y-component position of node 15 (blade 1, node 14), m
         45     9.04633026123E+001                                                     F               0         Z-component position of node 15 (blade 1, node 14), m
         46    -2.29847502708E+000                                                     F               0         X-component position of node 16 (blade 1, node 15), m
         47    -4.08627052307E+001                                                     F               0         Y-component position of node 16 (blade 1, node 15), m
         48     8.70687484741E+001                                                     F               0         Z-component position of node 16 (blade 1, node 15), m
         49    -3.00829720497E+000                                                     F               0         X-component position of node 17 (blade 1, node 16), m
         50    -4.25758476257E+001                                                     F               0         Y-component position of node 17 (blade 1, node 16), m
         51     8.36748046875E+001                                                     F               0         Z-component position of node 17 (blade 1, node 16), m
         52    -3.71812343597E+000                                                     F               0         X-component position of node 18 (blade 1, node 17), m
         53    -4.42889976501E+001                                                     F               0         Y-component position of node 18 (blade 1, node 17), m
         54     8.02808456421E+001                                                     F               0         Z-component position of node 18 (blade 1, node 17), m
         55    -4.42794561386E+000                                                     F               0         X-component position of node 19 (blade 1, node 18), m
         56    -4.60021400452E+001                                                     F               0         Y-component position of node 19 (blade 1, node 18), m
         57     7.68869094849E+001                                                     F               0         Z-component position of node 19 (blade 1, node 18), m
         58    -5.13789415359E+000                                                     F               0         X-component position of node 20 (blade 1, node 19), m
         59    -4.77155838013E+001                                                     F               0         Y-component position of node 20 (blade 1, node 19), m
         60     7.34923706055E+001                                                     F               0         Z-component position of node 20 (blade 1, node 19), m
         61    -5.84772062302E+000                                                     F               0         X-component position of node 21 (blade 1, node 20), m
         62    -4.94287300110E+001                                                     F               0         Y-component position of node 21 (blade 1, node 20), m
         63     7.00984191895E+001                                                     F               0         Z-component position of node 21 (blade 1, node 20), m
         64    -6.55754280090E+000                                                     F               0         X-component position of node 22 (blade 1, node 21), m
         65    -5.11418762207E+001                                                     F               0         Y-component position of node 22 (blade 1, node 21), m
         66     6.67044754028E+001                                                     F               0         Z-component position of node 22 (blade 1, node 21), m
         67    -7.26749467850E+000                                                     F               0         X-component position of node 23 (blade 1, node 22), m
         68    -5.28553276062E+001                                                     F               0         Y-component position of node 23 (blade 1, node 22), m
         69     6.33099212646E+001                                                     F               0         Z-component position of node 23 (blade 1, node 22), m
         70    -7.97732114792E+000                                                     F               0         X-component position of node 24 (blade 1, node 23), m
         71    -5.45684738159E+001                                                     F               0         Y-component position of node 24 (blade 1, node 23), m
         72     5.99159736633E+001                                                     F               0         Z-component position of node 24 (blade 1, node 23), m
         73    -8.68714332581E+000                                                     F               0         X-component position of node 25 (blade 1, node 24), m
         74    -5.62816200256E+001                                                     F               0         Y-component position of node 25 (blade 1, node 24), m
         75     5.65220336914E+001                                                     F               0         Z-component position of node 25 (blade 1, node 24), m
         76    -9.39696502686E+000                                                     F               0         X-component position of node 26 (blade 1, node 25), m
         77    -5.79947586060E+001                                                     F               0         Y-component position of node 26 (blade 1, node 25), m
         78     5.31280937195E+001                                                     F               0         Z-component position of node 26 (blade 1, node 25), m
         79    -1.01069173813E+001                                                     F               0         X-component position of node 27 (blade 1, node 26), m
         80    -5.97082138062E+001                                                     F               0         Y-component position of node 27 (blade 1, node 26), m
         81     4.97335319519E+001                                                     F               0         Z-component position of node 27 (blade 1, node 26), m
         82    -1.08167390823E+001                                                     F               0         X-component position of node 28 (blade 1, node 27), m
         83    -6.14213523865E+001                                                     F               0         Y-component position of node 28 (blade 1, node 27), m
         84     4.63396034241E+001                                                     F               0         Z-component position of node 28 (blade 1, node 27), m
         85    -1.14185199738E+001                                                     F               0         X-component position of node 29 (blade 1, node 28), m
         86    -6.28737335205E+001                                                     F               0         Y-component position of node 29 (blade 1, node 28), m
         87     4.34622573853E+001                                                     F               0         Z-component position of node 29 (blade 1, node 28), m
         88     1.08879070282E+001                                                     F               0         X-component position of node 30 (blade 2, node 1), m
         89    -3.68927001953E+000                                                     F               0         Y-component position of node 30 (blade 2, node 1), m
         90     1.50111679077E+002                                                     F               0         Z-component position of node 30 (blade 2, node 1), m
         91     1.09058790207E+001                                                     F               0         X-component position of node 31 (blade 2, node 2), m
         92    -2.35716557503E+000                                                     F               0         Y-component position of node 31 (blade 2, node 2), m
         93     1.50196105957E+002                                                     F               0         Z-component position of node 31 (blade 2, node 2), m
         94     1.11502780914E+001                                                     F               0         X-component position of node 32 (blade 2, node 3), m
         95     1.57572555542E+001                                                     F               0         Y-component position of node 32 (blade 2, node 3), m
         96     1.51344070435E+002                                                     F               0         Z-component position of node 32 (blade 2, node 3), m
         97     1.12023477554E+001                                                     F               0         X-component position of node 33 (blade 2, node 4), m
         98     1.96166629791E+001                                                     F               0         Y-component position of node 33 (blade 2, node 4), m
         99     1.51588668823E+002                                                     F               0         Z-component position of node 33 (blade 2, node 4), m
        100     1.12544279099E+001                                                     F               0         X-component position of node 34 (blade 2, node 5), m
        101     2.34767665863E+001                                                     F               0         Y-component position of node 34 (blade 2, node 5), m
        102     1.51833282471E+002                                                     F               0         Z-component position of node 34 (blade 2, node 5), m
        103     1.13065004349E+001                                                     F               0         X-component position of node 35 (blade 2, node 6), m
        104     2.73361740112E+001                                                     F               0         Y-component position of node 35 (blade 2, node 6), m
        105     1.52077865601E+002                                                     F               0         Z-component position of node 35 (blade 2, node 6), m
        106     1.13585700989E+001                                                     F               0         X-component position of node 36 (blade 2, node 7), m
        107     3.11955852509E+001                                                     F               0         Y-component position of node 36 (blade 2, node 7), m
        108     1.52322448730E+002                                                     F               0         Z-component position of node 36 (blade 2, node 7), m
        109     1.14106512070E+001                                                     F               0         X-component position of node 37 (blade 2, node 8), m
        110     3.50556869507E+001                                                     F               0         Y-component position of node 37 (blade 2, node 8), m
        111     1.52567077637E+002                                                     F               0         Z-component position of node 37 (blade 2, node 8), m
        112     1.14627208710E+001                                                     F               0         X-component position of node 38 (blade 2, node 9), m
        113     3.89150924683E+001                                                     F               0         Y-component position of node 38 (blade 2, node 9), m
        114     1.52811660767E+002                                                     F               0         Z-component position of node 38 (blade 2, node 9), m
        115     1.15147924423E+001                                                     F               0         X-component position of node 39 (blade 2, node 10), m
        116     4.27744979858E+001                                                     F               0         Y-component position of node 39 (blade 2, node 10), m
        117     1.53056243896E+002                                                     F               0         Z-component position of node 39 (blade 2, node 10), m
        118     1.15668640137E+001                                                     F               0         X-component position of node 40 (blade 2, node 11), m
        119     4.66339111328E+001                                                     F               0         Y-component position of node 40 (blade 2, node 11), m
        120     1.53300827026E+002                                                     F               0         Z-component position of node 40 (blade 2, node 11), m
        121     1.16189432144E+001                                                     F               0         X-component position of node 41 (blade 2, node 12), m
        122     5.04940147400E+001                                                     F               0         Y-component position of node 41 (blade 2, node 12), m
        123     1.53545440674E+002                                                     F               0         Z-component position of node 41 (blade 2, node 12), m
        124     1.16710138321E+001                                                     F               0         X-component position of node 42 (blade 2, node 13), m
        125     5.43534202576E+001                                                     F               0         Y-component position of node 42 (blade 2, node 13), m
        126     1.53790023804E+002                                                     F               0         Z-component position of node 42 (blade 2, node 13), m
        127     1.17230854034E+001                                                     F               0         X-component position of node 43 (blade 2, node 14), m
        128     5.82128295898E+001                                                     F               0         Y-component position of node 43 (blade 2, node 14), m
        129     1.54034606934E+002                                                     F               0         Z-component position of node 43 (blade 2, node 14), m
        130     1.17751655579E+001                                                     F               0         X-component position of node 44 (blade 2, node 15), m
        131     6.20729370117E+001                                                     F               0         Y-component position of node 44 (blade 2, node 15), m
        132     1.54279235840E+002                                                     F               0         Z-component position of node 44 (blade 2, node 15), m
        133     1.18272361755E+001                                                     F               0         X-component position of node 45 (blade 2, node 16), m
        134     6.59323425293E+001                                                     F               0         Y-component position of node 45 (blade 2, node 16), m
        135     1.54523818970E+002                                                     F               0         Z-component position of node 45 (blade 2, node 16), m
        136     1.18793058395E+001                                                     F               0         X-component position of node 46 (blade 2, node 17), m
        137     6.97917480469E+001                                                     F               0         Y-component position of node 46 (blade 2, node 17), m
        138     1.54768402100E+002                                                     F               0         Z-component position of node 46 (blade 2, node 17), m
        139     1.19313764572E+001                                                     F               0         X-component position of node 47 (blade 2, node 18), m
        140     7.36511535645E+001                                                     F               0         Y-component position of node 47 (blade 2, node 18), m
        141     1.55012985229E+002                                                     F               0         Z-component position of node 47 (blade 2, node 18), m
        142     1.19834575653E+001                                                     F               0         X-component position of node 48 (blade 2, node 19), m
        143     7.75112533569E+001                                                     F               0         Y-component position of node 48 (blade 2, node 19), m
        144     1.55257598877E+002                                                     F               0         Z-component position of node 48 (blade 2, node 19), m
        145     1.20355281830E+001                                                     F               0         X-component position of node 49 (blade 2, node 20), m
        146     8.13706665039E+001                                                     F               0         Y-component position of node 49 (blade 2, node 20), m
        147     1.55502197266E+002                                                     F               0         Z-component position of node 49 (blade 2, node 20), m
        148     1.20875997543E+001                                                     F               0         X-component position of node 50 (blade 2, node 21), m
        149     8.52300796509E+001                                                     F               0         Y-component position of node 50 (blade 2, node 21), m
        150     1.55746765137E+002                                                     F               0         Z-component position of node 50 (blade 2, node 21), m
        151     1.21396789551E+001                                                     F               0         X-component position of node 51 (blade 2, node 22), m
        152     8.90901794434E+001                                                     F               0         Y-component position of node 51 (blade 2, node 22), m
        153     1.55991394043E+002                                                     F               0         Z-component position of node 51 (blade 2, node 22), m
        154     1.21917505264E+001                                                     F               0         X-component position of node 52 (blade 2, node 23), m
        155     9.29495849609E+001                                                     F               0         Y-component position of node 52 (blade 2, node 23), m
        156     1.56235992432E+002                                                     F               0         Z-component position of node 52 (blade 2, node 23), m
        157     1.22438201904E+001                                                     F               0         X-component position of node 53 (blade 2, node 24), m
        158     9.68089981079E+001                                                     F               0         Y-component position of node 53 (blade 2, node 24), m
        159     1.56480560303E+002                                                     F               0         Z-component position of node 53 (blade 2, node 24), m
        160     1.22958917618E+001                                                     F               0         X-component position of node 54 (blade 2, node 25), m
        161     1.00668395996E+002                                                     F               0         Y-component position of node 54 (blade 2, node 25), m
        162     1.56725143433E+002                                                     F               0         Z-component position of node 54 (blade 2, node 25), m
        163     1.23479700089E+001                                                     F               0         X-component position of node 55 (blade 2, node 26), m
        164     1.04528511047E+002                                                     F               0         Y-component position of node 55 (blade 2, node 26), m
        165     1.56969772339E+002                                                     F               0         Z-component position of node 55 (blade 2, node 26), m
        166     1.24000415802E+001                                                     F               0         X-component position of node 56 (blade 2, node 27), m
        167     1.08387916565E+002                                                     F               0         Y-component position of node 56 (blade 2, node 27), m
        168     1.57214355469E+002                                                     F               0         Z-component position of node 56 (blade 2, node 27), m
        169     1.24441862106E+001                                                     F               0         X-component position of node 57 (blade 2, node 28), m
        170     1.11659851074E+002                                                     F               0         Y-component position of node 57 (blade 2, node 28), m
        171     1.57421707153E+002                                                     F               0         Z-component position of node 57 (blade 2, node 28), m
        172     1.17555160522E+001                                                     F               0         X-component position of node 58 (blade 3, node 1), m