
Linearized model: Predictions were generated on 13-Feb-2024 at 11:29:37 using OpenFAST, compiled as a 64-bit application using single precision at commit v3.5.1
 linked with  NWTC Subroutine Library; ElastoDyn; InflowWind; AeroDyn; ServoDyn; HydroDyn; MAP++ (<1.20.10>, <Oct-20-2023>)

Description from the FAST input file: CCT-9 Campign 4 model. Input files to be run with OpenFAST 3.5.0. GitHub branch from Lu Wang (https://github.com/luwang00/openfast/tree/dev) compiled on March 7, 2023.

Simulation information:
   Simulation time:                  1212.3750 s
   Rotor Speed:                         0.7914 rad/s
   Azimuth:                             1.2270 rad
   Wind Speed:                         16.0000 m/s
   Number of continuous states:         0
   Number of discrete states:           0
   Number of constraint states:         0
   Number of inputs:                 1746
   Number of outputs:                   4
   Jacobians included in this file?    No

Order of inputs:
     Column   Operating Point                                                   Rotating Frame? Derivative Order Description
   ---------- ---------------                                                   --------------- ---------------- -----------
          1     1.07026681900E+001                                                     F               0         Tower X translation displacement, node 1, m
          2    -1.55942010880E+000                                                     F               0         Tower Y translation displacement, node 1, m
          3    -2.69316703081E-001                                                     F               0         Tower Z translation displacement, node 1, m
          4     1.20886001587E+001                                                     F               0         Tower X translation displacement, node 2, m
          5    -2.19284272194E+000                                                     F               0         Tower Y translation displacement, node 2, m
          6    -3.63649427891E-001                                                     F               0         Tower Z translation displacement, node 2, m
          7     1.34745321274E+001                                                     F               0         Tower X translation displacement, node 3, m
          8    -2.82626533508E+000                                                     F               0         Tower Y translation displacement, node 3, m
          9    -4.57980096340E-001                                                     F               0         Tower Z translation displacement, node 3, m
         10     1.48604640961E+001                                                     F               0         Tower X translation displacement, node 4, m
         11    -3.45968770981E+000                                                     F               0         Tower Y translation displacement, node 4, m
         12    -5.52310943604E-001                                                     F               0         Tower Z translation displacement, node 4, m
         13     1.62463970184E+001                                                     F               0         Tower X translation displacement, node 5, m
         14    -4.09311056137E+000                                                     F               0         Tower Y translation displacement, node 5, m
         15    -6.46638989449E-001                                                     F               0         Tower Z translation displacement, node 5, m
         16     1.76323261261E+001                                                     F               0         Tower X translation displacement, node 6, m
         17    -4.72653293610E+000                                                     F               0         Tower Y translation displacement, node 6, m
         18    -7.40977585316E-001                                                     F               0         Tower Z translation displacement, node 6, m
         19     1.90182590485E+001                                                     F               0         Tower X translation displacement, node 7, m
         20    -5.35995578766E+000                                                     F               0         Tower Y translation displacement, node 7, m
         21    -8.35302233696E-001                                                     F               0         Tower Z translation displacement, node 7, m
         22     2.04041900635E+001                                                     F               0         Tower X translation displacement, node 8, m
         23    -5.99337768555E+000                                                     F               0         Tower Y translation displacement, node 8, m
         24    -9.29638922215E-001                                                     F               0         Tower Z translation displacement, node 8, m
         25     2.17901229858E+001                                                     F               0         Tower X translation displacement, node 9, m
         26    -6.62680101395E+000                                                     F               0         Tower Y translation displacement, node 9, m
         27    -1.02396667004E+000                                                     F               0         Tower Z translation displacement, node 9, m
         28     2.31760559082E+001                                                     F               0         Tower X translation displacement, node 10, m
         29    -7.26022338867E+000                                                     F               0         Tower Y translation displacement, node 10, m
         30    -1.11830031872E+000                                                     F               0         Tower Z translation displacement, node 10, m
         31     2.45619869232E+001                                                     F               0         Tower X translation displacement, node 11, m
         32    -7.89364576340E+000                                                     F               0         Tower Y translation displacement, node 11, m
         33    -1.21263098717E+000                                                     F               0         Tower Z translation displacement, node 11, m
         34     9.93685543537E-001,   3.40925855562E-003,  -1.12148933113E-001         F               0         Tower X orientation angle, node 1, rad
         35     2.36648134887E-003,   9.98679101467E-001,   5.13272248209E-002         F               0         Tower Y orientation angle, node 1, rad
         36     1.12175785005E-001,  -5.12685216963E-002,   9.92364943027E-001         F               0         Tower Z orientation angle, node 1, rad
         37     9.93685543537E-001,   3.40925855562E-003,  -1.12148933113E-001         F               0         Tower X orientation angle, node 2, rad
         38     2.36648134887E-003,   9.98679101467E-001,   5.13272248209E-002         F               0         Tower Y orientation angle, node 2, rad
         39     1.12175785005E-001,  -5.12685216963E-002,   9.92364943027E-001         F               0         Tower Z orientation angle, node 2, rad
         40     9.93685543537E-001,   3.40925855562E-003,  -1.12148933113E-001         F               0         Tower X orientation angle, node 3, rad
         41     2.36648134887E-003,   9.98679101467E-001,   5.13272248209E-002         F               0         Tower Y orientation angle, node 3, rad
         42     1.12175785005E-001,  -5.12685216963E-002,   9.92364943027E-001         F               0         Tower Z orientation angle, node 3, rad
         43     9.93685543537E-001,   3.40925855562E-003,  -1.12148933113E-001         F               0         Tower X orientation angle, node 4, rad
         44     2.36648134887E-003,   9.98679101467E-001,   5.13272248209E-002         F               0         Tower Y orientation angle, node 4, rad
         45     1.12175785005E-001,  -5.12685216963E-002,   9.92364943027E-001         F               0         Tower Z orientation angle, node 4, rad
         46     9.93685543537E-001,   3.40925855562E-003,  -1.12148933113E-001         F               0         Tower X orientation angle, node 5, rad
         47     2.36648134887E-003,   9.98679101467E-001,   5.13272248209E-002         F               0         Tower Y orientation angle, node 5, rad
         48     1.12175785005E-001,  -5.12685216963E-002,   9.92364943027E-001         F               0         Tower Z orientation angle, node 5, rad
         49     9.93685543537E-001,   3.40925855562E-003,  -1.12148933113E-001         F               0         Tower X orientation angle, node 6, rad
         50     2.36648134887E-003,   9.98679101467E-001,   5.13272248209E-002         F               0         Tower Y orientation angle, node 6, rad
         51     1.12175785005E-001,  -5.12685216963E-002,   9.92364943027E-001         F               0         Tower Z orientation angle, node 6, rad
         52     9.93685543537E-001,   3.40925855562E-003,  -1.12148933113E-001         F               0         Tower X orientation angle, node 7, rad
         53     2.36648134887E-003,   9.98679101467E-001,   5.13272248209E-002         F               0         Tower Y orientation angle, node 7, rad
         54     1.12175785005E-001,  -5.12685216963E-002,   9.92364943027E-001         F               0         Tower Z orientation angle, node 7, rad
         55     9.93685543537E-001,   3.40925855562E-003,  -1.12148933113E-001         F               0         Tower X orientation angle, node 8, rad
         56     2.36648134887E-003,   9.98679101467E-001,   5.13272248209E-002         F               0         Tower Y orientation angle, node 8, rad
         57     1.12175785005E-001,  -5.12685216963E-002,   9.92364943027E-001         F               0         Tower Z orientation angle, node 8, rad
         58     9.93685543537E-001,   3.40925878845E-003,  -1.12148940563E-001         F               0         Tower X orientation angle, node 9, rad
         59     2.36648158170E-003,   9.98679101467E-001,   5.13272285461E-002         F               0         Tower Y orientation angle, node 9, rad
         60     1.12175785005E-001,  -5.12685216963E-002,   9.92364943027E-001         F               0         Tower Z orientation angle, node 9, rad
         61     9.93685543537E-001,   3.40925855562E-003,  -1.12148933113E-001         F               0         Tower X orientation angle, node 10, rad
         62     2.36648134887E-003,   9.98679101467E-001,   5.13272248209E-002         F               0         Tower Y orientation angle, node 10, rad
         63     1.12175785005E-001,  -5.12685216963E-002,   9.92364943027E-001         F               0         Tower Z orientation angle, node 10, rad
         64     9.93685543537E-001,   3.40925855562E-003,  -1.12148933113E-001         F               0         Tower X orientation angle, node 11, rad
         65     2.36648134887E-003,   9.98679101467E-001,   5.13272248209E-002         F               0         Tower Y orientation angle, node 11, rad
         66     1.12175785005E-001,  -5.12685216963E-002,   9.92364943027E-001         F               0         Tower Z orientation angle, node 11, rad
         67    -2.65682116151E-004                                                     F               0         Tower X translation velocity, node 1, m/s
         68     1.48938817438E-003                                                     F               0         Tower Y translation velocity, node 1, m/s
         69     1.65138742886E-004                                                     F               0         Tower Z translation velocity, node 1, m/s
         70    -3.40627506375E-004                                                     F               0         Tower X translation velocity, node 2, m/s
         71     2.01375014149E-003                                                     F               0         Tower Y translation velocity, node 2, m/s
         72     2.00700553250E-004                                                     F               0         Tower Z translation velocity, node 2, m/s
         73    -4.15572896600E-004                                                     F               0         Tower X translation velocity, node 3, m/s
         74     2.53811199218E-003                                                     F               0         Tower Y translation velocity, node 3, m/s
         75     2.36262392718E-004                                                     F               0         Tower Z translation velocity, node 3, m/s
         76    -4.90518286824E-004                                                     F               0         Tower X translation velocity, node 4, m/s
         77     3.06247361004E-003                                                     F               0         Tower Y translation velocity, node 4, m/s
         78     2.71824217634E-004                                                     F               0         Tower Z translation velocity, node 4, m/s
         79    -5.65463677049E-004                                                     F               0         Tower X translation velocity, node 5, m/s
         80     3.58683569357E-003                                                     F               0         Tower Y translation velocity, node 5, m/s
         81     3.07386100758E-004                                                     F               0         Tower Z translation velocity, node 5, m/s
         82    -6.40409009065E-004                                                     F               0         Tower X translation velocity, node 6, m/s
         83     4.11119731143E-003                                                     F               0         Tower Y translation velocity, node 6, m/s
         84     3.42947867466E-004                                                     F               0         Tower Z translation velocity, node 6, m/s
         85    -7.15354457498E-004                                                     F               0         Tower X translation velocity, node 7, m/s
         86     4.63555939496E-003                                                     F               0         Tower Y translation velocity, node 7, m/s
         87     3.78509721486E-004                                                     F               0         Tower Z translation velocity, node 7, m/s
         88    -7.90299731307E-004                                                     F               0         Tower X translation velocity, node 8, m/s
         89     5.15992101282E-003                                                     F               0         Tower Y translation velocity, node 8, m/s
         90     4.14071517298E-004                                                     F               0         Tower Z translation velocity, node 8, m/s
         91    -8.65245296154E-004                                                     F               0         Tower X translation velocity, node 9, m/s
         92     5.68428309634E-003                                                     F               0         Tower Y translation velocity, node 9, m/s
         93     4.49633429525E-004                                                     F               0         Tower Z translation velocity, node 9, m/s
         94    -9.40190628171E-004                                                     F               0         Tower X translation velocity, node 10, m/s
         95     6.20864471421E-003                                                     F               0         Tower Y translation velocity, node 10, m/s
         96     4.85195225338E-004                                                     F               0         Tower Z translation velocity, node 10, m/s
         97    -1.01513601840E-003                                                     F               0         Tower X translation velocity, node 11, m/s
         98     6.73300633207E-003                                                     F               0         Tower Y translation velocity, node 11, m/s
         99     5.20757050253E-004                                                     F               0         Tower Z translation velocity, node 11, m/s
        100     2.55107860565E+001                                                     F               0         Hub X translation displacement, node 1, m
        101    -8.33293437958E+000                                                     F               0         Hub Y translation displacement, node 1, m
        102    -6.12969957292E-002                                                     F               0         Hub Z translation displacement, node 1, m
        103     9.76516485214E-001,   8.74960236251E-003,  -2.15264946222E-001         F               0         Hub X orientation angle, node 1, rad
        104     2.03617513180E-001,   2.88994759321E-001,   9.35426056385E-001         F               0         Hub Y orientation angle, node 1, rad
        105     7.03950449824E-002,  -9.57290709019E-001,   2.80426561832E-001         F               0         Hub Z orientation angle, node 1, rad
        106     7.72728025913E-001                                                     F               0         Hub X rotation velocity, node 1, rad/s
        107     6.91749574617E-003                                                     F               0         Hub Y rotation velocity, node 1, rad/s
        108    -1.70342534781E-001                                                     F               0         Hub Z rotation velocity, node 1, rad/s
        109     9.38156247139E-001,  -3.19965742528E-002,  -3.44730466604E-001         F               0         Blade root 1 X orientation angle, node 1, rad
        110     3.38979959488E-001,   2.87351250648E-001,   8.95835816860E-001         F               0         Blade root 1 Y orientation angle, node 1, rad
        111     7.03950449824E-002,  -9.57290709019E-001,   2.80426561832E-001         F               0         Blade root 1 Z orientation angle, node 1, rad
        112     9.72550034523E-001,   1.45630881190E-001,  -1.81488379836E-001         F               0         Blade root 2 X orientation angle, node 1, rad
        113     9.69491228461E-002,  -9.62621152401E-001,  -2.52905935049E-001         F               0         Blade root 2 Y orientation angle, node 1, rad
        114    -2.11535468698E-001,   2.28368550539E-001,  -9.50316011906E-001         F               0         Blade root 2 Z orientation angle, node 1, rad
        115     9.89704251289E-001,  -8.76465886831E-002,  -1.13152608275E-001         F               0         Blade root 3 X orientation angle, node 1, rad
        116    -2.37659160048E-002,   6.78962886333E-001,  -7.33787834644E-001         F               0         Blade root 3 Y orientation angle, node 1, rad
        117     1.41140416265E-001,   7.28922128677E-001,   6.69889450073E-001         F               0         Blade root 3 Z orientation angle, node 1, rad
        118     2.53216857910E+001                                                     F               0         Blade 1 X translation displacement, node 1, m
        119    -1.36363248825E+001                                                     F               0         Blade 1 Y translation displacement, node 1, m
        120    -4.01739263535E+000                                                     F               0         Blade 1 Z translation displacement, node 1, m
        121     2.52761211395E+001                                                     F               0         Blade 1 X translation displacement, node 2, m
        122    -1.49142179489E+001                                                     F               0         Blade 1 Y translation displacement, node 2, m
        123    -4.97064018250E+000                                                     F               0         Blade 1 Z translation displacement, node 2, m
        124     2.46565189362E+001                                                     F               0         Blade 1 X translation displacement, node 3, m
        125    -3.22913475037E+001                                                     F               0         Blade 1 Y translation displacement, node 3, m
        126    -1.79331855774E+001                                                     F               0         Blade 1 Z translation displacement, node 3, m
        127     2.45245075226E+001                                                     F               0         Blade 1 X translation displacement, node 4, m
        128    -3.59936485291E+001                                                     F               0         Blade 1 Y translation displacement, node 4, m
        129    -2.06949424744E+001                                                     F               0         Blade 1 Z translation displacement, node 4, m
        130     2.43924732208E+001                                                     F               0         Blade 1 X translation displacement, node 5, m
        131    -3.96966552734E+001                                                     F               0         Blade 1 Y translation displacement, node 5, m
        132    -2.34572067261E+001                                                     F               0         Blade 1 Z translation displacement, node 5, m
        133     2.42604618073E+001                                                     F               0         Blade 1 X translation displacement, node 6, m
        134    -4.33989677429E+001                                                     F               0         Blade 1 Y translation displacement, node 6, m
        135    -2.62189731598E+001                                                     F               0         Blade 1 Z translation displacement, node 6, m
        136     2.41284503937E+001                                                     F               0         Blade 1 X translation displacement, node 7, m
        137    -4.71012954712E+001                                                     F               0         Blade 1 Y translation displacement, node 7, m
        138    -2.89807338715E+001                                                     F               0         Blade 1 Z translation displacement, node 7, m
        139     2.39964160919E+001                                                     F               0         Blade 1 X translation displacement, node 8, m
        140    -5.08042869568E+001                                                     F               0         Blade 1 Y translation displacement, node 8, m
        141    -3.17430038452E+001                                                     F               0         Blade 1 Z translation displacement, node 8, m
        142     2.38644027710E+001                                                     F               0         Blade 1 X translation displacement, node 9, m
        143    -5.45066146851E+001                                                     F               0         Blade 1 Y translation displacement, node 9, m
        144    -3.45047645569E+001                                                     F               0         Blade 1 Z translation displacement, node 9, m
        145     2.37323932648E+001                                                     F               0         Blade 1 X translation displacement, node 10, m
        146    -5.82089309692E+001                                                     F               0         Blade 1 Y translation displacement, node 10, m
        147    -3.72665328979E+001                                                     F               0         Blade 1 Z translation displacement, node 10, m
        148     2.36003818512E+001                                                     F               0         Blade 1 X translation displacement, node 11, m
        149    -6.19112586975E+001                                                     F               0         Blade 1 Y translation displacement, node 11, m
        150    -4.00282936096E+001                                                     F               0         Blade 1 Z translation displacement, node 11, m
        151     2.34683475494E+001                                                     F               0         Blade 1 X translation displacement, node 12, m
        152    -6.56142349243E+001                                                     F               0         Blade 1 Y translation displacement, node 12, m
        153    -4.27905540466E+001                                                     F               0         Blade 1 Z translation displacement, node 12, m
        154     2.33363361359E+001                                                     F               0         Blade 1 X translation displacement, node 13, m
        155    -6.93165664673E+001                                                     F               0         Blade 1 Y translation displacement, node 13, m
        156    -4.55523147583E+001                                                     F               0         Blade 1 Z translation displacement, node 13, m
        157     2.32043266296E+001                                                     F               0         Blade 1 X translation displacement, node 14, m
        158    -7.30188827515E+001                                                     F               0         Blade 1 Y translation displacement, node 14, m
        159    -4.83140792847E+001                                                     F               0         Blade 1 Z translation displacement, node 14, m
        160     2.30722904205E+001                                                     F               0         Blade 1 X translation displacement, node 15, m
        161    -7.67218780518E+001                                                     F               0         Blade 1 Y translation displacement, node 15, m
        162    -5.10763435364E+001                                                     F               0         Blade 1 Z translation displacement, node 15, m
        163     2.29402790070E+001                                                     F               0         Blade 1 X translation displacement, node 16, m
        164    -8.04241943359E+001                                                     F               0         Blade 1 Y translation displacement, node 16, m
        165    -5.38381118774E+001                                                     F               0         Blade 1 Z translation displacement, node 16, m
        166     2.28082695007E+001                                                     F               0         Blade 1 X translation displacement, node 17, m
        167    -8.41265335083E+001                                                     F               0         Blade 1 Y translation displacement, node 17, m
        168    -5.65998725891E+001                                                     F               0         Blade 1 Z translation displacement, node 17, m
        169     2.26762580872E+001                                                     F               0         Blade 1 X translation displacement, node 18, m
        170    -8.78288497925E+001                                                     F               0         Blade 1 Y translation displacement, node 18, m
        171    -5.93616409302E+001                                                     F               0         Blade 1 Z translation displacement, node 18, m
        172     2.25442237854E+001                                                     F               0         Blade 1 X translation displacement, node 19, m
        173    -9.15318222046E+001                                                     F               0         Blade 1 Y translation displacement, node 19, m
        174    -6.21238975525E+001                                                     F               0         Blade 1 Z translation displacement, node 19, m
        175     2.24122104645E+001                                                     F               0         Blade 1 X translation displacement, node 20, m
        176    -9.52341537476E+001                                                     F               0         Blade 1 Y translation displacement, node 20, m
        177    -6.48856582642E+001                                                     F               0         Blade 1 Z translation displacement, node 20, m
        178     2.22802009583E+001                                                     F               0         Blade 1 X translation displacement, node 21, m
        179    -9.89364776611E+001                                                     F               0         Blade 1 Y translation displacement, node 21, m
        180    -6.76474227905E+001                                                     F               0         Blade 1 Z translation displacement, node 21, m
        181     2.21481666565E+001                                                     F               0         Blade 1 X translation displacement, node 22, m
        182    -1.02639465332E+002                                                     F               0         Blade 1 Y translation displacement, node 22, m
        183    -7.04096908569E+001                                                     F               0         Blade 1 Z translation displacement, node 22, m