
Linearized model: Predictions were generated on 07-Feb-2024 at 11:38:03 using OpenFAST, compiled as a 64-bit application using single precision at commit v3.5.1
 linked with  NWTC Subroutine Library; ElastoDyn; InflowWind; AeroDyn; ServoDyn; HydroDyn; MAP++ (<1.20.10>, <Oct-20-2023>)

Description from the FAST input file: CCT-9 Campign 4 model. Input files to be run with OpenFAST 3.5.0. GitHub branch from Lu Wang (https://github.com/luwang00/openfast/tree/dev) compiled on March 7, 2023.

Simulation information:
   Simulation time:                  1008.4500 s
   Rotor Speed:                         1.0427 rad/s
   Azimuth:                             3.5583 rad
   Wind Speed:                         12.0000 m/s
   Number of continuous states:         0
   Number of discrete states:           0
   Number of constraint states:         0
   Number of inputs:                  303
   Number of outputs:                   1
   Jacobians included in this file?    No

Order of inputs:
     Column   Operating Point                     Rotating Frame? Derivative Order Description
   ---------- ---------------                     --------------- ---------------- -----------
          1   -1.080E+01                                 F               0         X-component position of node 1 (hub), m
          2    0.000E+00                                 F               0         Y-component position of node 1 (hub), m
          3    1.497E+02                                 F               0         Z-component position of node 1 (hub), m
          4    2.461E+01                                 F               0         X-component position of node 2 (blade 1, node 1), m
          5   -5.888E+00                                 F               0         Y-component position of node 2 (blade 1, node 1), m
          6    1.443E+02                                 F               0         Z-component position of node 2 (blade 1, node 1), m
          7    2.427E+01                                 F               0         X-component position of node 3 (blade 1, node 2), m
          8   -5.284E+00                                 F               0         Y-component position of node 3 (blade 1, node 2), m
          9    1.432E+02                                 F               0         Z-component position of node 3 (blade 1, node 2), m
         10    1.976E+01                                 F               0         X-component position of node 4 (blade 1, node 3), m
         11    2.926E+00                                 F               0         Y-component position of node 4 (blade 1, node 3), m
         12    1.277E+02                                 F               0         Z-component position of node 4 (blade 1, node 3), m
         13    1.880E+01                                 F               0         X-component position of node 5 (blade 1, node 4), m
         14    4.675E+00                                 F               0         Y-component position of node 5 (blade 1, node 4), m
         15    1.243E+02                                 F               0         Z-component position of node 5 (blade 1, node 4), m
         16    1.783E+01                                 F               0         X-component position of node 6 (blade 1, node 5), m
         17    6.424E+00                                 F               0         Y-component position of node 6 (blade 1, node 5), m
         18    1.210E+02                                 F               0         Z-component position of node 6 (blade 1, node 5), m
         19    1.687E+01                                 F               0         X-component position of node 7 (blade 1, node 6), m
         20    8.173E+00                                 F               0         Y-component position of node 7 (blade 1, node 6), m
         21    1.177E+02                                 F               0         Z-component position of node 7 (blade 1, node 6), m
         22    1.591E+01                                 F               0         X-component position of node 8 (blade 1, node 7), m
         23    9.922E+00                                 F               0         Y-component position of node 8 (blade 1, node 7), m
         24    1.144E+02                                 F               0         Z-component position of node 8 (blade 1, node 7), m
         25    1.495E+01                                 F               0         X-component position of node 9 (blade 1, node 8), m
         26    1.167E+01                                 F               0         Y-component position of node 9 (blade 1, node 8), m
         27    1.111E+02                                 F               0         Z-component position of node 9 (blade 1, node 8), m
         28    1.398E+01                                 F               0         X-component position of node 10 (blade 1, node 9), m
         29    1.342E+01                                 F               0         Y-component position of node 10 (blade 1, node 9), m
         30    1.078E+02                                 F               0         Z-component position of node 10 (blade 1, node 9), m
         31    1.302E+01                                 F               0         X-component position of node 11 (blade 1, node 10), m
         32    1.517E+01                                 F               0         Y-component position of node 11 (blade 1, node 10), m
         33    1.045E+02                                 F               0         Z-component position of node 11 (blade 1, node 10), m
         34    1.206E+01                                 F               0         X-component position of node 12 (blade 1, node 11), m
         35    1.692E+01                                 F               0         Y-component position of node 12 (blade 1, node 11), m
         36    1.012E+02                                 F               0         Z-component position of node 12 (blade 1, node 11), m
         37    1.110E+01                                 F               0         X-component position of node 13 (blade 1, node 12), m
         38    1.867E+01                                 F               0         Y-component position of node 13 (blade 1, node 12), m
         39    9.784E+01                                 F               0         Z-component position of node 13 (blade 1, node 12), m
         40    1.014E+01                                 F               0         X-component position of node 14 (blade 1, node 13), m
         41    2.042E+01                                 F               0         Y-component position of node 14 (blade 1, node 13), m
         42    9.453E+01                                 F               0         Z-component position of node 14 (blade 1, node 13), m
         43    9.173E+00                                 F               0         X-component position of node 15 (blade 1, node 14), m
         44    2.217E+01                                 F               0         Y-component position of node 15 (blade 1, node 14), m
         45    9.122E+01                                 F               0         Z-component position of node 15 (blade 1, node 14), m
         46    8.211E+00                                 F               0         X-component position of node 16 (blade 1, node 15), m
         47    2.392E+01                                 F               0         Y-component position of node 16 (blade 1, node 15), m
         48    8.790E+01                                 F               0         Z-component position of node 16 (blade 1, node 15), m
         49    7.249E+00                                 F               0         X-component position of node 17 (blade 1, node 16), m
         50    2.567E+01                                 F               0         Y-component position of node 17 (blade 1, node 16), m
         51    8.459E+01                                 F               0         Z-component position of node 17 (blade 1, node 16), m
         52    6.286E+00                                 F               0         X-component position of node 18 (blade 1, node 17), m
         53    2.741E+01                                 F               0         Y-component position of node 18 (blade 1, node 17), m
         54    8.128E+01                                 F               0         Z-component position of node 18 (blade 1, node 17), m
         55    5.324E+00                                 F               0         X-component position of node 19 (blade 1, node 18), m
         56    2.916E+01                                 F               0         Y-component position of node 19 (blade 1, node 18), m
         57    7.797E+01                                 F               0         Z-component position of node 19 (blade 1, node 18), m
         58    4.362E+00                                 F               0         X-component position of node 20 (blade 1, node 19), m
         59    3.091E+01                                 F               0         Y-component position of node 20 (blade 1, node 19), m
         60    7.465E+01                                 F               0         Z-component position of node 20 (blade 1, node 19), m
         61    3.400E+00                                 F               0         X-component position of node 21 (blade 1, node 20), m
         62    3.266E+01                                 F               0         Y-component position of node 21 (blade 1, node 20), m
         63    7.134E+01                                 F               0         Z-component position of node 21 (blade 1, node 20), m
         64    2.437E+00                                 F               0         X-component position of node 22 (blade 1, node 21), m
         65    3.441E+01                                 F               0         Y-component position of node 22 (blade 1, node 21), m
         66    6.803E+01                                 F               0         Z-component position of node 22 (blade 1, node 21), m
         67    1.475E+00                                 F               0         X-component position of node 23 (blade 1, node 22), m
         68    3.616E+01                                 F               0         Y-component position of node 23 (blade 1, node 22), m
         69    6.471E+01                                 F               0         Z-component position of node 23 (blade 1, node 22), m
         70    5.128E-01                                 F               0         X-component position of node 24 (blade 1, node 23), m
         71    3.791E+01                                 F               0         Y-component position of node 24 (blade 1, node 23), m
         72    6.140E+01                                 F               0         Z-component position of node 24 (blade 1, node 23), m
         73   -4.494E-01                                 F               0         X-component position of node 25 (blade 1, node 24), m
         74    3.966E+01                                 F               0         Y-component position of node 25 (blade 1, node 24), m
         75    5.809E+01                                 F               0         Z-component position of node 25 (blade 1, node 24), m
         76   -1.412E+00                                 F               0         X-component position of node 26 (blade 1, node 25), m
         77    4.141E+01                                 F               0         Y-component position of node 26 (blade 1, node 25), m
         78    5.478E+01                                 F               0         Z-component position of node 26 (blade 1, node 25), m
         79   -2.374E+00                                 F               0         X-component position of node 27 (blade 1, node 26), m
         80    4.316E+01                                 F               0         Y-component position of node 27 (blade 1, node 26), m
         81    5.146E+01                                 F               0         Z-component position of node 27 (blade 1, node 26), m
         82   -3.336E+00                                 F               0         X-component position of node 28 (blade 1, node 27), m
         83    4.491E+01                                 F               0         Y-component position of node 28 (blade 1, node 27), m
         84    4.815E+01                                 F               0         Z-component position of node 28 (blade 1, node 27), m
         85   -4.152E+00                                 F               0         X-component position of node 29 (blade 1, node 28), m
         86    4.639E+01                                 F               0         Y-component position of node 29 (blade 1, node 28), m
         87    4.534E+01                                 F               0         Z-component position of node 29 (blade 1, node 28), m
         88    2.717E+01                                 F               0         X-component position of node 30 (blade 2, node 1), m
         89   -5.368E+00                                 F               0         Y-component position of node 30 (blade 2, node 1), m
         90    1.536E+02                                 F               0         Z-component position of node 30 (blade 2, node 1), m
         91    2.746E+01                                 F               0         X-component position of node 31 (blade 2, node 2), m
         92   -4.639E+00                                 F               0         Y-component position of node 31 (blade 2, node 2), m
         93    1.547E+02                                 F               0         Z-component position of node 31 (blade 2, node 2), m
         94    3.135E+01                                 F               0         X-component position of node 32 (blade 2, node 3), m
         95    5.273E+00                                 F               0         Y-component position of node 32 (blade 2, node 3), m
         96    1.694E+02                                 F               0         Z-component position of node 32 (blade 2, node 3), m
         97    3.218E+01                                 F               0         X-component position of node 33 (blade 2, node 4), m
         98    7.385E+00                                 F               0         Y-component position of node 33 (blade 2, node 4), m
         99    1.725E+02                                 F               0         Z-component position of node 33 (blade 2, node 4), m
        100    3.301E+01                                 F               0         X-component position of node 34 (blade 2, node 5), m
        101    9.497E+00                                 F               0         Y-component position of node 34 (blade 2, node 5), m
        102    1.756E+02                                 F               0         Z-component position of node 34 (blade 2, node 5), m
        103    3.384E+01                                 F               0         X-component position of node 35 (blade 2, node 6), m
        104    1.161E+01                                 F               0         Y-component position of node 35 (blade 2, node 6), m
        105    1.788E+02                                 F               0         Z-component position of node 35 (blade 2, node 6), m
        106    3.467E+01                                 F               0         X-component position of node 36 (blade 2, node 7), m
        107    1.372E+01                                 F               0         Y-component position of node 36 (blade 2, node 7), m
        108    1.819E+02                                 F               0         Z-component position of node 36 (blade 2, node 7), m
        109    3.549E+01                                 F               0         X-component position of node 37 (blade 2, node 8), m
        110    1.583E+01                                 F               0         Y-component position of node 37 (blade 2, node 8), m
        111    1.850E+02                                 F               0         Z-component position of node 37 (blade 2, node 8), m
        112    3.632E+01                                 F               0         X-component position of node 38 (blade 2, node 9), m
        113    1.795E+01                                 F               0         Y-component position of node 38 (blade 2, node 9), m
        114    1.882E+02                                 F               0         Z-component position of node 38 (blade 2, node 9), m
        115    3.715E+01                                 F               0         X-component position of node 39 (blade 2, node 10), m
        116    2.006E+01                                 F               0         Y-component position of node 39 (blade 2, node 10), m
        117    1.913E+02                                 F               0         Z-component position of node 39 (blade 2, node 10), m
        118    3.798E+01                                 F               0         X-component position of node 40 (blade 2, node 11), m
        119    2.217E+01                                 F               0         Y-component position of node 40 (blade 2, node 11), m
        120    1.944E+02                                 F               0         Z-component position of node 40 (blade 2, node 11), m
        121    3.881E+01                                 F               0         X-component position of node 41 (blade 2, node 12), m
        122    2.428E+01                                 F               0         Y-component position of node 41 (blade 2, node 12), m
        123    1.975E+02                                 F               0         Z-component position of node 41 (blade 2, node 12), m
        124    3.964E+01                                 F               0         X-component position of node 42 (blade 2, node 13), m
        125    2.639E+01                                 F               0         Y-component position of node 42 (blade 2, node 13), m
        126    2.007E+02                                 F               0         Z-component position of node 42 (blade 2, node 13), m
        127    4.047E+01                                 F               0         X-component position of node 43 (blade 2, node 14), m
        128    2.850E+01                                 F               0         Y-component position of node 43 (blade 2, node 14), m
        129    2.038E+02                                 F               0         Z-component position of node 43 (blade 2, node 14), m
        130    4.130E+01                                 F               0         X-component position of node 44 (blade 2, node 15), m
        131    3.062E+01                                 F               0         Y-component position of node 44 (blade 2, node 15), m
        132    2.069E+02                                 F               0         Z-component position of node 44 (blade 2, node 15), m
        133    4.213E+01                                 F               0         X-component position of node 45 (blade 2, node 16), m
        134    3.273E+01                                 F               0         Y-component position of node 45 (blade 2, node 16), m
        135    2.101E+02                                 F               0         Z-component position of node 45 (blade 2, node 16), m
        136    4.296E+01                                 F               0         X-component position of node 46 (blade 2, node 17), m
        137    3.484E+01                                 F               0         Y-component position of node 46 (blade 2, node 17), m
        138    2.132E+02                                 F               0         Z-component position of node 46 (blade 2, node 17), m
        139    4.378E+01                                 F               0         X-component position of node 47 (blade 2, node 18), m
        140    3.695E+01                                 F               0         Y-component position of node 47 (blade 2, node 18), m
        141    2.163E+02                                 F               0         Z-component position of node 47 (blade 2, node 18), m
        142    4.461E+01                                 F               0         X-component position of node 48 (blade 2, node 19), m
        143    3.906E+01                                 F               0         Y-component position of node 48 (blade 2, node 19), m
        144    2.195E+02                                 F               0         Z-component position of node 48 (blade 2, node 19), m
        145    4.544E+01                                 F               0         X-component position of node 49 (blade 2, node 20), m
        146    4.118E+01                                 F               0         Y-component position of node 49 (blade 2, node 20), m
        147    2.226E+02                                 F               0         Z-component position of node 49 (blade 2, node 20), m
        148    4.627E+01                                 F               0         X-component position of node 50 (blade 2, node 21), m
        149    4.329E+01                                 F               0         Y-component position of node 50 (blade 2, node 21), m
        150    2.257E+02                                 F               0         Z-component position of node 50 (blade 2, node 21), m
        151    4.710E+01                                 F               0         X-component position of node 51 (blade 2, node 22), m
        152    4.540E+01                                 F               0         Y-component position of node 51 (blade 2, node 22), m
        153    2.289E+02                                 F               0         Z-component position of node 51 (blade 2, node 22), m
        154    4.793E+01                                 F               0         X-component position of node 52 (blade 2, node 23), m
        155    4.751E+01                                 F               0         Y-component position of node 52 (blade 2, node 23), m
        156    2.320E+02                                 F               0         Z-component position of node 52 (blade 2, node 23), m
        157    4.876E+01                                 F               0         X-component position of node 53 (blade 2, node 24), m
        158    4.962E+01                                 F               0         Y-component position of node 53 (blade 2, node 24), m
        159    2.351E+02                                 F               0         Z-component position of node 53 (blade 2, node 24), m
        160    4.959E+01                                 F               0         X-component position of node 54 (blade 2, node 25), m
        161    5.174E+01                                 F               0         Y-component position of node 54 (blade 2, node 25), m
        162    2.383E+02                                 F               0         Z-component position of node 54 (blade 2, node 25), m
        163    5.042E+01                                 F               0         X-component position of node 55 (blade 2, node 26), m
        164    5.385E+01                                 F               0         Y-component position of node 55 (blade 2, node 26), m
        165    2.414E+02                                 F               0         Z-component position of node 55 (blade 2, node 26), m
        166    5.125E+01                                 F               0         X-component position of node 56 (blade 2, node 27), m
        167    5.596E+01                                 F               0         Y-component position of node 56 (blade 2, node 27), m
        168    2.445E+02                                 F               0         Z-component position of node 56 (blade 2, node 27), m
        169    5.195E+01                                 F               0         X-component position of node 57 (blade 2, node 28), m
        170    5.775E+01                                 F               0         Y-component position of node 57 (blade 2, node 28), m
        171    2.472E+02                                 F               0         Z-component position of node 57 (blade 2, node 28), m
        172    2.618E+01                                 F               0         X-component position of node 58 (blade 3, node 1), m
        173   -1.392E+01                                 F               0         Y-component position of node 58 (blade 3, node 1), m
        174    1.493E+02                                 F               0         Z-component position of node 58 (blade 3, node 1), m
        175    2.622E+01                                 F               0         X-component position of node 59 (blade 3, node 2), m
        176   -1.526E+01                                 F               0         Y-component position of node 59 (blade 3, node 2), m
        177    1.494E+02                                 F               0         Z-component position of node 59 (blade 3, node 2), m
        178    2.685E+01                                 F               0         X-component position of node 60 (blade 3, node 3), m
        179   -3.338E+01                                 F               0         Y-component position of node 60 (blade 3, node 3), m
        180    1.503E+02                                 F               0         Z-component position of node 60 (blade 3, node 3), m
        181    2.698E+01                                 F               0         X-component position of node 61 (blade 3, node 4), m
        182   -3.724E+01                                 F               0         Y-component position of node 61 (blade 3, node 4), m
        183    1.504E+02                                 F               0         Z-component position of node 61 (blade 3, node 4), m
        184    2.711E+01                                 F               0         X-component position of node 62 (blade 3, node 5), m
        185   -4.110E+01                                 F               0         Y-component position of node 62 (blade 3, node 5), m
        186    1.506E+02                                 F               0         Z-component position of node 62 (blade 3, node 5), m
        187    2.725E+01                                 F               0         X-component position of node 63 (blade 3, node 6), m
        188   -4.496E+01                                 F               0         Y-component position of node 63 (blade 3, node 6), m
        189    1.508E+02                                 F               0         Z-component position of node 63 (blade 3, node 6), m
        190    2.738E+01                                 F               0         X-component position of node 64 (blade 3, node 7), m
        191   -4.882E+01                                 F               0         Y-component position of node 64 (blade 3, node 7), m
        192    1.510E+02                                 F               0         Z-component position of node 64 (blade 3, node 7), m
        193    2.751E+01                                 F               0         X-component position of node 65 (blade 3, node 8), m
        194   -5.268E+01                                 F               0         Y-component position of node 65 (blade 3, node 8), m
        195    1.512E+02                                 F               0         Z-component position of node 65 (blade 3, node 8), m
        196    2.765E+01                                 F               0         X-component position of node 66 (blade 3, node 9), m
        197   -5.655E+01                                 F               0         Y-component position of node 66 (blade 3, node 9), m
        198    1.513E+02                                 F               0         Z-component position of node 66 (blade 3, node 9), m
        199    2.778E+01                                 F               0         X-component position of node 67 (blade 3, node 10), m
        200   -6.041E+01                                 F               0         Y-component position of node 67 (blade 3, node 10), m
        201    1.515E+02                                 F               0         Z-component position of node 67 (blade 3, node 10), m
        202    2.791E+01                                 F               0         X-component position of node 68 (blade 3, node 11), m
        203   -6.427E+01                                 F               0         Y-component position of node 68 (blade 3, node 11), m
        204    1.517E+02                                 F               0         Z-component position of node 68 (blade 3, node 11), m
        205    2.804E+01                                 F               0         X-component position of node 69 (blade 3, node 12), m
        206   -6.813E+01                                 F               0         Y-component position of node 69 (blade 3, node 12), m
        207    1.519E+02                                 F               0         Z-component position of node 69 (blade 3, node 12), m
        208    2.818E+01                                 F               0         X-component position of node 70 (blade 3, node 13), m
        209   -7.199E+01                                 F               0         Y-component position of node 70 (blade 3, node 13), m
        210    1.521E+02                                 F               0         Z-component position of node 70 (blade 3, node 13), m
        211    2.831E+01                                 F               0         X-component position of node 71 (blade 3, node 14), m