
Linearized model: Predictions were generated on 12-Jan-2024 at 09:28:28 using OpenFAST, compiled as a 64-bit application using single precision at commit v3.5.1
 linked with  NWTC Subroutine Library; ElastoDyn; InflowWind; AeroDyn; ServoDyn; HydroDyn; MAP++ (<1.20.10>, <Oct-20-2023>)

Description from the FAST input file: CCT-9 Campign 4 model. Input files to be run with OpenFAST 3.5.0. GitHub branch from Lu Wang (https://github.com/luwang00/openfast/tree/dev) compiled on March 7, 2023.

Simulation information:
   Simulation time:                   504.7000 s
   Rotor Speed:                         0.8773 rad/s
   Azimuth:                             1.6952 rad
   Wind Speed:                         10.0000 m/s
   Number of continuous states:         0
   Number of discrete states:           0
   Number of constraint states:         0
   Number of inputs:                 1746
   Number of outputs:                   4
   Jacobians included in this file?    No

Order of inputs:
     Column   Operating Point                     Rotating Frame? Derivative Order Description
   ---------- ---------------                     --------------- ---------------- -----------
          1    1.100E+01                                 F               0         Tower X translation displacement, node 1, m
          2   -1.227E+00                                 F               0         Tower Y translation displacement, node 1, m
          3   -3.226E-01                                 F               0         Tower Z translation displacement, node 1, m
          4    1.247E+01                                 F               0         Tower X translation displacement, node 2, m
          5   -1.813E+00                                 F               0         Tower Y translation displacement, node 2, m
          6   -4.241E-01                                 F               0         Tower Z translation displacement, node 2, m
          7    1.396E+01                                 F               0         Tower X translation displacement, node 3, m
          8   -2.405E+00                                 F               0         Tower Y translation displacement, node 3, m
          9   -5.289E-01                                 F               0         Tower Z translation displacement, node 3, m
         10    1.547E+01                                 F               0         Tower X translation displacement, node 4, m
         11   -3.001E+00                                 F               0         Tower Y translation displacement, node 4, m
         12   -6.361E-01                                 F               0         Tower Z translation displacement, node 4, m
         13    1.700E+01                                 F               0         Tower X translation displacement, node 5, m
         14   -3.600E+00                                 F               0         Tower Y translation displacement, node 5, m
         15   -7.455E-01                                 F               0         Tower Z translation displacement, node 5, m
         16    1.854E+01                                 F               0         Tower X translation displacement, node 6, m
         17   -4.204E+00                                 F               0         Tower Y translation displacement, node 6, m
         18   -8.565E-01                                 F               0         Tower Z translation displacement, node 6, m
         19    2.008E+01                                 F               0         Tower X translation displacement, node 7, m
         20   -4.809E+00                                 F               0         Tower Y translation displacement, node 7, m
         21   -9.689E-01                                 F               0         Tower Z translation displacement, node 7, m
         22    2.164E+01                                 F               0         Tower X translation displacement, node 8, m
         23   -5.417E+00                                 F               0         Tower Y translation displacement, node 8, m
         24   -1.082E+00                                 F               0         Tower Z translation displacement, node 8, m
         25    2.320E+01                                 F               0         Tower X translation displacement, node 9, m
         26   -6.027E+00                                 F               0         Tower Y translation displacement, node 9, m
         27   -1.196E+00                                 F               0         Tower Z translation displacement, node 9, m
         28    2.477E+01                                 F               0         Tower X translation displacement, node 10, m
         29   -6.637E+00                                 F               0         Tower Y translation displacement, node 10, m
         30   -1.311E+00                                 F               0         Tower Z translation displacement, node 10, m
         31    2.633E+01                                 F               0         Tower X translation displacement, node 11, m
         32   -7.249E+00                                 F               0         Tower Y translation displacement, node 11, m
         33   -1.426E+00                                 F               0         Tower Z translation displacement, node 11, m
         34    9.930E-01,  9.881E-03, -1.177E-01         F               0         Tower X orientation angle, node 1, rad
         35   -4.243E-03,  9.988E-01,  4.806E-02         F               0         Tower Y orientation angle, node 1, rad
         36    1.180E-01, -4.723E-02,  9.919E-01         F               0         Tower Z orientation angle, node 1, rad
         37    9.928E-01,  9.970E-03, -1.195E-01         F               0         Tower X orientation angle, node 2, rad
         38   -4.189E-03,  9.988E-01,  4.851E-02         F               0         Tower Y orientation angle, node 2, rad
         39    1.199E-01, -4.766E-02,  9.916E-01         F               0         Tower Z orientation angle, node 2, rad
         40    9.926E-01,  1.005E-02, -1.212E-01         F               0         Tower X orientation angle, node 3, rad
         41   -4.140E-03,  9.988E-01,  4.891E-02         F               0         Tower Y orientation angle, node 3, rad
         42    1.215E-01, -4.805E-02,  9.914E-01         F               0         Tower Z orientation angle, node 3, rad
         43    9.924E-01,  1.012E-02, -1.226E-01         F               0         Tower X orientation angle, node 4, rad
         44   -4.097E-03,  9.988E-01,  4.926E-02         F               0         Tower Y orientation angle, node 4, rad
         45    1.229E-01, -4.839E-02,  9.912E-01         F               0         Tower Z orientation angle, node 4, rad
         46    9.923E-01,  1.017E-02, -1.237E-01         F               0         Tower X orientation angle, node 5, rad
         47   -4.059E-03,  9.988E-01,  4.956E-02         F               0         Tower Y orientation angle, node 5, rad
         48    1.240E-01, -4.868E-02,  9.911E-01         F               0         Tower Z orientation angle, node 5, rad
         49    9.922E-01,  1.022E-02, -1.246E-01         F               0         Tower X orientation angle, node 6, rad
         50   -4.028E-03,  9.988E-01,  4.982E-02         F               0         Tower Y orientation angle, node 6, rad
         51    1.250E-01, -4.892E-02,  9.910E-01         F               0         Tower Z orientation angle, node 6, rad
         52    9.921E-01,  1.025E-02, -1.253E-01         F               0         Tower X orientation angle, node 7, rad
         53   -4.002E-03,  9.987E-01,  5.002E-02         F               0         Tower Y orientation angle, node 7, rad
         54    1.256E-01, -4.912E-02,  9.909E-01         F               0         Tower Z orientation angle, node 7, rad
         55    9.920E-01,  1.027E-02, -1.258E-01         F               0         Tower X orientation angle, node 8, rad
         56   -3.982E-03,  9.987E-01,  5.018E-02         F               0         Tower Y orientation angle, node 8, rad
         57    1.261E-01, -4.927E-02,  9.908E-01         F               0         Tower Z orientation angle, node 8, rad
         58    9.920E-01,  1.029E-02, -1.261E-01         F               0         Tower X orientation angle, node 9, rad
         59   -3.968E-03,  9.987E-01,  5.029E-02         F               0         Tower Y orientation angle, node 9, rad
         60    1.265E-01, -4.939E-02,  9.907E-01         F               0         Tower Z orientation angle, node 9, rad
         61    9.919E-01,  1.030E-02, -1.263E-01         F               0         Tower X orientation angle, node 10, rad
         62   -3.958E-03,  9.987E-01,  5.037E-02         F               0         Tower Y orientation angle, node 10, rad
         63    1.267E-01, -4.946E-02,  9.907E-01         F               0         Tower Z orientation angle, node 10, rad
         64    9.919E-01,  1.031E-02, -1.264E-01         F               0         Tower X orientation angle, node 11, rad
         65   -3.953E-03,  9.987E-01,  5.041E-02         F               0         Tower Y orientation angle, node 11, rad
         66    1.268E-01, -4.950E-02,  9.907E-01         F               0         Tower Z orientation angle, node 11, rad
         67   -4.818E-03                                 F               0         Tower X translation velocity, node 1, m/s
         68    3.755E-03                                 F               0         Tower Y translation velocity, node 1, m/s
         69    4.073E-03                                 F               0         Tower Z translation velocity, node 1, m/s
         70   -5.034E-03                                 F               0         Tower X translation velocity, node 2, m/s
         71    5.051E-03                                 F               0         Tower Y translation velocity, node 2, m/s
         72    4.161E-03                                 F               0         Tower Z translation velocity, node 2, m/s
         73   -5.186E-03                                 F               0         Tower X translation velocity, node 3, m/s
         74    6.439E-03                                 F               0         Tower Y translation velocity, node 3, m/s
         75    4.247E-03                                 F               0         Tower Z translation velocity, node 3, m/s
         76   -5.287E-03                                 F               0         Tower X translation velocity, node 4, m/s
         77    7.900E-03                                 F               0         Tower Y translation velocity, node 4, m/s
         78    4.330E-03                                 F               0         Tower Z translation velocity, node 4, m/s
         79   -5.343E-03                                 F               0         Tower X translation velocity, node 5, m/s
         80    9.425E-03                                 F               0         Tower Y translation velocity, node 5, m/s
         81    4.412E-03                                 F               0         Tower Z translation velocity, node 5, m/s
         82   -5.362E-03                                 F               0         Tower X translation velocity, node 6, m/s
         83    1.100E-02                                 F               0         Tower Y translation velocity, node 6, m/s
         84    4.492E-03                                 F               0         Tower Z translation velocity, node 6, m/s
         85   -5.352E-03                                 F               0         Tower X translation velocity, node 7, m/s
         86    1.262E-02                                 F               0         Tower Y translation velocity, node 7, m/s
         87    4.571E-03                                 F               0         Tower Z translation velocity, node 7, m/s
         88   -5.316E-03                                 F               0         Tower X translation velocity, node 8, m/s
         89    1.428E-02                                 F               0         Tower Y translation velocity, node 8, m/s
         90    4.649E-03                                 F               0         Tower Z translation velocity, node 8, m/s
         91   -5.261E-03                                 F               0         Tower X translation velocity, node 9, m/s
         92    1.596E-02                                 F               0         Tower Y translation velocity, node 9, m/s
         93    4.725E-03                                 F               0         Tower Z translation velocity, node 9, m/s
         94   -5.192E-03                                 F               0         Tower X translation velocity, node 10, m/s
         95    1.766E-02                                 F               0         Tower Y translation velocity, node 10, m/s
         96    4.802E-03                                 F               0         Tower Z translation velocity, node 10, m/s
         97   -5.115E-03                                 F               0         Tower X translation velocity, node 11, m/s
         98    1.938E-02                                 F               0         Tower Y translation velocity, node 11, m/s
         99    4.877E-03                                 F               0         Tower Z translation velocity, node 11, m/s
        100    2.741E+01                                 F               0         Hub X translation displacement, node 1, m
        101   -7.749E+00                                 F               0         Hub Y translation displacement, node 1, m
        102   -1.335E-01                                 F               0         Hub Z translation displacement, node 1, m
        103    9.732E-01,  1.543E-02, -2.293E-01         F               0         Hub X orientation angle, node 1, rad
        104    2.285E-01, -1.717E-01,  9.583E-01         F               0         Hub Y orientation angle, node 1, rad
        105   -2.458E-02, -9.850E-01, -1.706E-01         F               0         Hub Z orientation angle, node 1, rad
        106    8.537E-01                                 F               0         Hub X rotation velocity, node 1, rad/s
        107    1.353E-02                                 F               0         Hub Y rotation velocity, node 1, rad/s
        108   -2.011E-01                                 F               0         Hub Z rotation velocity, node 1, rad/s
        109    9.660E-01,  2.051E-02, -2.576E-01         F               0         Blade root 1 X orientation angle, node 1, rad
        110    2.573E-01, -1.711E-01,  9.511E-01         F               0         Blade root 1 Y orientation angle, node 1, rad
        111   -2.458E-02, -9.850E-01, -1.706E-01         F               0         Blade root 1 Z orientation angle, node 1, rad
        112    9.768E-01,  3.818E-02, -2.106E-01         F               0         Blade root 2 X orientation angle, node 1, rad
        113   -1.066E-01, -7.664E-01, -6.334E-01         F               0         Blade root 2 Y orientation angle, node 1, rad
        114   -1.856E-01,  6.412E-01, -7.446E-01         F               0         Blade root 2 Z orientation angle, node 1, rad
        115    9.756E-01, -1.244E-02, -2.194E-01         F               0         Blade root 3 X orientation angle, node 1, rad
        116   -6.405E-02,  9.389E-01, -3.381E-01         F               0         Blade root 3 Y orientation angle, node 1, rad
        117    2.102E-01,  3.438E-01,  9.152E-01         F               0         Blade root 3 Z orientation angle, node 1, rad
        118    2.670E+01                                 F               0         Blade 1 X translation displacement, node 1, m
        119   -1.321E+01                                 F               0         Blade 1 Y translation displacement, node 1, m
        120   -6.588E+00                                 F               0         Blade 1 Z translation displacement, node 1, m
        121    2.653E+01                                 F               0         Blade 1 X translation displacement, node 2, m
        122   -1.452E+01                                 F               0         Blade 1 Y translation displacement, node 2, m
        123   -8.144E+00                                 F               0         Blade 1 Z translation displacement, node 2, m
        124    2.418E+01                                 F               0         Blade 1 X translation displacement, node 3, m
        125   -3.240E+01                                 F               0         Blade 1 Y translation displacement, node 3, m
        126   -2.929E+01                                 F               0         Blade 1 Z translation displacement, node 3, m
        127    2.368E+01                                 F               0         Blade 1 X translation displacement, node 4, m
        128   -3.621E+01                                 F               0         Blade 1 Y translation displacement, node 4, m
        129   -3.380E+01                                 F               0         Blade 1 Z translation displacement, node 4, m
        130    2.318E+01                                 F               0         Blade 1 X translation displacement, node 5, m
        131   -4.002E+01                                 F               0         Blade 1 Y translation displacement, node 5, m
        132   -3.831E+01                                 F               0         Blade 1 Z translation displacement, node 5, m
        133    2.268E+01                                 F               0         Blade 1 X translation displacement, node 6, m
        134   -4.383E+01                                 F               0         Blade 1 Y translation displacement, node 6, m
        135   -4.281E+01                                 F               0         Blade 1 Z translation displacement, node 6, m
        136    2.219E+01                                 F               0         Blade 1 X translation displacement, node 7, m
        137   -4.764E+01                                 F               0         Blade 1 Y translation displacement, node 7, m
        138   -4.732E+01                                 F               0         Blade 1 Z translation displacement, node 7, m
        139    2.169E+01                                 F               0         Blade 1 X translation displacement, node 8, m
        140   -5.145E+01                                 F               0         Blade 1 Y translation displacement, node 8, m
        141   -5.183E+01                                 F               0         Blade 1 Z translation displacement, node 8, m
        142    2.119E+01                                 F               0         Blade 1 X translation displacement, node 9, m
        143   -5.526E+01                                 F               0         Blade 1 Y translation displacement, node 9, m
        144   -5.633E+01                                 F               0         Blade 1 Z translation displacement, node 9, m
        145    2.069E+01                                 F               0         Blade 1 X translation displacement, node 10, m
        146   -5.907E+01                                 F               0         Blade 1 Y translation displacement, node 10, m
        147   -6.084E+01                                 F               0         Blade 1 Z translation displacement, node 10, m
        148    2.019E+01                                 F               0         Blade 1 X translation displacement, node 11, m
        149   -6.288E+01                                 F               0         Blade 1 Y translation displacement, node 11, m
        150   -6.534E+01                                 F               0         Blade 1 Z translation displacement, node 11, m
        151    1.969E+01                                 F               0         Blade 1 X translation displacement, node 12, m
        152   -6.669E+01                                 F               0         Blade 1 Y translation displacement, node 12, m
        153   -6.985E+01                                 F               0         Blade 1 Z translation displacement, node 12, m
        154    1.919E+01                                 F               0         Blade 1 X translation displacement, node 13, m
        155   -7.050E+01                                 F               0         Blade 1 Y translation displacement, node 13, m
        156   -7.436E+01                                 F               0         Blade 1 Z translation displacement, node 13, m
        157    1.869E+01                                 F               0         Blade 1 X translation displacement, node 14, m
        158   -7.431E+01                                 F               0         Blade 1 Y translation displacement, node 14, m
        159   -7.886E+01                                 F               0         Blade 1 Z translation displacement, node 14, m
        160    1.819E+01                                 F               0         Blade 1 X translation displacement, node 15, m
        161   -7.812E+01                                 F               0         Blade 1 Y translation displacement, node 15, m
        162   -8.337E+01                                 F               0         Blade 1 Z translation displacement, node 15, m
        163    1.769E+01                                 F               0         Blade 1 X translation displacement, node 16, m
        164   -8.193E+01                                 F               0         Blade 1 Y translation displacement, node 16, m
        165   -8.788E+01                                 F               0         Blade 1 Z translation displacement, node 16, m
        166    1.719E+01                                 F               0         Blade 1 X translation displacement, node 17, m
        167   -8.574E+01                                 F               0         Blade 1 Y translation displacement, node 17, m
        168   -9.238E+01                                 F               0         Blade 1 Z translation displacement, node 17, m
        169    1.669E+01                                 F               0         Blade 1 X translation displacement, node 18, m
        170   -8.955E+01                                 F               0         Blade 1 Y translation displacement, node 18, m
        171   -9.689E+01                                 F               0         Blade 1 Z translation displacement, node 18, m
        172    1.619E+01                                 F               0         Blade 1 X translation displacement, node 19, m
        173   -9.336E+01                                 F               0         Blade 1 Y translation displacement, node 19, m
        174   -1.014E+02                                 F               0         Blade 1 Z translation displacement, node 19, m
        175    1.569E+01                                 F               0         Blade 1 X translation displacement, node 20, m
        176   -9.717E+01                                 F               0         Blade 1 Y translation displacement, node 20, m
        177   -1.059E+02                                 F               0         Blade 1 Z translation displacement, node 20, m
        178    1.519E+01                                 F               0         Blade 1 X translation displacement, node 21, m
        179   -1.010E+02                                 F               0         Blade 1 Y translation displacement, node 21, m
        180   -1.104E+02                                 F               0         Blade 1 Z translation displacement, node 21, m
        181    1.469E+01                                 F               0         Blade 1 X translation displacement, node 22, m
        182   -1.048E+02                                 F               0         Blade 1 Y translation displacement, node 22, m
        183   -1.149E+02                                 F               0         Blade 1 Z translation displacement, node 22, m
        184    1.420E+01                                 F               0         Blade 1 X translation displacement, node 23, m
        185   -1.086E+02                                 F               0         Blade 1 Y translation displacement, node 23, m
        186   -1.194E+02                                 F               0         Blade 1 Z translation displacement, node 23, m
        187    1.370E+01                                 F               0         Blade 1 X translation displacement, node 24, m
        188   -1.124E+02                                 F               0         Blade 1 Y translation displacement, node 24, m
        189   -1.239E+02                                 F               0         Blade 1 Z translation displacement, node 24, m
        190    1.320E+01                                 F               0         Blade 1 X translation displacement, node 25, m
        191   -1.162E+02                                 F               0         Blade 1 Y translation displacement, node 25, m
        192   -1.284E+02                                 F               0         Blade 1 Z translation displacement, node 25, m
        193    1.270E+01                                 F               0         Blade 1 X translation displacement, node 26, m
        194   -1.200E+02                                 F               0         Blade 1 Y translation displacement, node 26, m
        195   -1.329E+02                                 F               0         Blade 1 Z translation displacement, node 26, m
        196    1.220E+01                                 F               0         Blade 1 X translation displacement, node 27, m
        197   -1.238E+02                                 F               0         Blade 1 Y translation displacement, node 27, m
        198   -1.374E+02                                 F               0         Blade 1 Z translation displacement, node 27, m
        199    1.177E+01                                 F               0         Blade 1 X translation displacement, node 28, m
        200   -1.271E+02                                 F               0         Blade 1 Y translation displacement, node 28, m
        201   -1.413E+02                                 F               0         Blade 1 Z translation displacement, node 28, m
        202    7.424E-01,  9.630E-02, -6.630E-01         F               0         Blade 1 X orientation angle, node 1, rad
        203    6.695E-01, -1.430E-01,  7.289E-01         F               0         Blade 1 Y orientation angle, node 1, rad
        204   -2.458E-02, -9.850E-01, -1.706E-01         F               0         Blade 1 Z orientation angle, node 1, rad
        205    7.424E-01,  9.630E-02, -6.630E-01         F               0         Blade 1 X orientation angle, node 2, rad
        206    6.695E-01, -1.430E-01,  7.289E-01         F               0         Blade 1 Y orientation angle, node 2, rad
        207   -2.458E-02, -9.850E-01, -1.706E-01         F               0         Blade 1 Z orientation angle, node 2, rad
        208    8.799E-01,  5.967E-02, -4.713E-01         F               0         Blade 1 X orientation angle, node 3, rad
        209    4.744E-01, -1.617E-01,  8.653E-01         F               0         Blade 1 Y orientation angle, node 3, rad
        210   -2.458E-02, -9.850E-01, -1.706E-01         F               0         Blade 1 Z orientation angle, node 3, rad
        211    8.992E-01,  5.279E-02, -4.344E-01         F               0         Blade 1 X orientation angle, node 4, rad
        212    4.369E-01, -1.641E-01,  8.844E-01         F               0         Blade 1 Y orientation angle, node 4, rad
        213   -2.458E-02, -9.850E-01, -1.706E-01         F               0         Blade 1 Z orientation angle, node 4, rad
        214    9.132E-01,  4.732E-02, -4.048E-01         F               0         Blade 1 X orientation angle, node 5, rad
        215    4.068E-01, -1.657E-01,  8.983E-01         F               0         Blade 1 Y orientation angle, node 5, rad
        216   -2.458E-02, -9.850E-01, -1.706E-01         F               0         Blade 1 Z orientation angle, node 5, rad
        217    9.236E-01,  4.291E-02, -3.808E-01         F               0         Blade 1 X orientation angle, node 6, rad
        218    3.824E-01, -1.669E-01,  9.088E-01         F               0         Blade 1 Y orientation angle, node 6, rad
        219   -2.458E-02, -9.850E-01, -1.706E-01         F               0         Blade 1 Z orientation angle, node 6, rad
        220    9.318E-01,  3.926E-02, -3.609E-01         F               0         Blade 1 X orientation angle, node 7, rad
        221    3.622E-01, -1.678E-01,  9.169E-01         F               0         Blade 1 Y orientation angle, node 7, rad
        222   -2.458E-02, -9.850E-01, -1.706E-01         F               0         Blade 1 Z orientation angle, node 7, rad
        223    9.382E-01,  3.620E-02, -3.442E-01         F               0         Blade 1 X orientation angle, node 8, rad
        224    3.452E-01, -1.685E-01,  9.233E-01         F               0         Blade 1 Y orientation angle, node 8, rad
        225   -2.458E-02, -9.850E-01, -1.706E-01         F               0         Blade 1 Z orientation angle, node 8, rad
        226    9.434E-01,  3.361E-02, -3.300E-01         F               0         Blade 1 X orientation angle, node 9, rad
        227    3.308E-01, -1.691E-01,  9.284E-01         F               0         Blade 1 Y orientation angle, node 9, rad