
Linearized model: Predictions were generated on 13-Feb-2024 at 12:12:09 using OpenFAST, compiled as a 64-bit application using single precision at commit v3.5.1
 linked with  NWTC Subroutine Library; ElastoDyn; InflowWind; AeroDyn; ServoDyn; HydroDyn; MAP++ (<1.20.10>, <Oct-20-2023>)

Description from the FAST input file: CCT-9 Campign 4 model. Input files to be run with OpenFAST 3.5.0. GitHub branch from Lu Wang (https://github.com/luwang00/openfast/tree/dev) compiled on March 7, 2023.

Simulation information:
   Simulation time:                   773.1000 s
   Rotor Speed:                         0.7915 rad/s
   Azimuth:                             2.1097 rad
   Wind Speed:                         24.0000 m/s
   Number of continuous states:         0
   Number of discrete states:           0
   Number of constraint states:         0
   Number of inputs:                   37
   Number of outputs:                   7
   Jacobians included in this file?    No

Order of inputs:
     Column   Operating Point                                                   Rotating Frame? Derivative Order Description
   ---------- ---------------                                                   --------------- ---------------- -----------
          1     6.82263326645E+000                                                     F               0         WAMIT X translation displacement, node 1, m
          2    -8.26043367386E-001                                                     F               0         WAMIT Y translation displacement, node 1, m
          3    -1.04945860803E-001                                                     F               0         WAMIT Z translation displacement, node 1, m
          4     9.95469212532E-001,  -6.69970968738E-003,  -9.48482304811E-002         F               0         WAMIT X orientation angle, node 1, rad
          5     1.18252551183E-002,   9.98493492603E-001,   5.35809770226E-002         F               0         WAMIT Y orientation angle, node 1, rad
          6     9.43463593721E-002,  -5.44598139822E-002,   9.94048714638E-001         F               0         WAMIT Z orientation angle, node 1, rad
          7    -4.14683111012E-003                                                     F               0         WAMIT X translation velocity, node 1, m/s
          8     6.16794102825E-004                                                     F               0         WAMIT Y translation velocity, node 1, m/s
          9    -3.23564541759E-004                                                     F               0         WAMIT Z translation velocity, node 1, m/s
         10     5.17581781878E-008                                                     F               0         WAMIT X rotation velocity, node 1, rad/s
         11    -2.20980655286E-004                                                     F               0         WAMIT Y rotation velocity, node 1, rad/s
         12    -1.71697120095E-005                                                     F               0         WAMIT Z rotation velocity, node 1, rad/s
         13     5.06880041212E-003                                                     F               0         WAMIT X translation acceleration, node 1, m/s^2
         14    -4.27610240877E-003                                                     F               0         WAMIT Y translation acceleration, node 1, m/s^2
         15    -1.66775879916E-003                                                     F               0         WAMIT Z translation acceleration, node 1, m/s^2
         16     2.68223258900E-004                                                     F               0         WAMIT X rotation acceleration, node 1, rad/s^2
         17     2.66919669230E-004                                                     F               0         WAMIT Y rotation acceleration, node 1, rad/s^2
         18     2.06667737075E-005                                                     F               0         WAMIT Z rotation acceleration, node 1, rad/s^2
         19     6.82263326645E+000                                                     F               0         Platform-RefPt X translation displacement, node 1, m
         20    -8.26043367386E-001                                                     F               0         Platform-RefPt Y translation displacement, node 1, m
         21    -1.04945860803E-001                                                     F               0         Platform-RefPt Z translation displacement, node 1, m
         22     9.95469212532E-001,  -6.69970968738E-003,  -9.48482304811E-002         F               0         Platform-RefPt X orientation angle, node 1, rad
         23     1.18252551183E-002,   9.98493492603E-001,   5.35809770226E-002         F               0         Platform-RefPt Y orientation angle, node 1, rad
         24     9.43463593721E-002,  -5.44598139822E-002,   9.94048714638E-001         F               0         Platform-RefPt Z orientation angle, node 1, rad
         25    -4.14683111012E-003                                                     F               0         Platform-RefPt X translation velocity, node 1, m/s
         26     6.16794102825E-004                                                     F               0         Platform-RefPt Y translation velocity, node 1, m/s
         27    -3.23564541759E-004                                                     F               0         Platform-RefPt Z translation velocity, node 1, m/s
         28     5.17581781878E-008                                                     F               0         Platform-RefPt X rotation velocity, node 1, rad/s
         29    -2.20980655286E-004                                                     F               0         Platform-RefPt Y rotation velocity, node 1, rad/s
         30    -1.71697120095E-005                                                     F               0         Platform-RefPt Z rotation velocity, node 1, rad/s
         31     5.06880041212E-003                                                     F               0         Platform-RefPt X translation acceleration, node 1, m/s^2
         32    -4.27610240877E-003                                                     F               0         Platform-RefPt Y translation acceleration, node 1, m/s^2
         33    -1.66775879916E-003                                                     F               0         Platform-RefPt Z translation acceleration, node 1, m/s^2
         34     2.68223258900E-004                                                     F               0         Platform-RefPt X rotation acceleration, node 1, rad/s^2
         35     2.66919669230E-004                                                     F               0         Platform-RefPt Y rotation acceleration, node 1, rad/s^2
         36     2.06667737075E-005                                                     F               0         Platform-RefPt Z rotation acceleration, node 1, rad/s^2
         37     0.00000000000E+000                                                     F               0         Extended input: wave elevation at platform ref point, m

Order of outputs:
        Row   Operating Point                                                   Rotating Frame? Derivative Order Description
   ---------- ---------------                                                   --------------- ---------------- -----------
          1     0.00000000000E+000                                                     F               0         Wave1Elev, (m)
          2    -6.74425468750E+004                                                     F               0         HydroFxi, (N)
          3     1.36573154297E+004                                                     F               0         HydroFyi, (N)
          4     2.03836672000E+008                                                     F               0         HydroFzi, (N)
          5    -1.18604824000E+008                                                     F               0         HydroMxi, (N-m)
          6    -2.05548256000E+008                                                     F               0         HydroMyi, (N-m)
          7    -4.04863625000E+005                                                     F               0         HydroMzi, (N-m)


Linearized state matrices:

D: 7 x 37
     0.00000000000E+000   0.00000000000E+000   0.00000000000E+000   0.00000000000E+000   0.00000000000E+000   0.00000000000E+000   0.00000000000E+000   0.00000000000E+000   0.00000000000E+000   0.00000000000E+000   0.00000000000E+000   0.00000000000E+000   0.00000000000E+000   0.00000000000E+000   0.00000000000E+000   0.00000000000E+000   0.00000000000E+000   0.00000000000E+000   0.00000000000E+000   0.00000000000E+000   0.00000000000E+000   0.00000000000E+000   0.00000000000E+000   0.00000000000E+000   0.00000000000E+000   0.00000000000E+000   0.00000000000E+000   0.00000000000E+000   0.00000000000E+000   0.00000000000E+000   0.00000000000E+000   0.00000000000E+000   0.00000000000E+000   0.00000000000E+000   0.00000000000E+000   0.00000000000E+000   0.00000000000E+000
    -6.86001893231E+003   0.00000000000E+000   0.00000000000E+000   0.00000000000E+000   0.00000000000E+000   0.00000000000E+000  -2.82313810041E+005   0.00000000000E+000   0.00000000000E+000   0.00000000000E+000   0.00000000000E+000   0.00000000000E+000  -9.38083794618E+006   0.00000000000E+000   1.99831830976E+001   0.00000000000E+000   9.82680351759E+007   0.00000000000E+000   0.00000000000E+000   0.00000000000E+000   0.00000000000E+000   0.00000000000E+000   0.00000000000E+000   0.00000000000E+000   0.00000000000E+000   0.00000000000E+000   0.00000000000E+000   0.00000000000E+000   0.00000000000E+000   0.00000000000E+000   0.00000000000E+000   0.00000000000E+000   0.00000000000E+000   0.00000000000E+000   0.00000000000E+000   0.00000000000E+000   0.00000000000E+000
     0.00000000000E+000   0.00000000000E+000   0.00000000000E+000   0.00000000000E+000   0.00000000000E+000   0.00000000000E+000   0.00000000000E+000  -2.82176165876E+005   0.00000000000E+000   0.00000000000E+000   0.00000000000E+000   0.00000000000E+000   0.00000000000E+000  -9.38088807999E+006   0.00000000000E+000  -9.82662446828E+007   0.00000000000E+000   1.78568117338E+003   0.00000000000E+000   0.00000000000E+000   0.00000000000E+000   0.00000000000E+000   0.00000000000E+000   0.00000000000E+000   0.00000000000E+000   0.00000000000E+000   0.00000000000E+000   0.00000000000E+000   0.00000000000E+000   0.00000000000E+000   0.00000000000E+000   0.00000000000E+000   0.00000000000E+000   0.00000000000E+000   0.00000000000E+000   0.00000000000E+000   0.00000000000E+000
     0.00000000000E+000   0.00000000000E+000  -4.39481570682E+006   0.00000000000E+000   3.66692991724E+003   0.00000000000E+000   0.00000000000E+000   0.00000000000E+000  -8.06397214219E+005   0.00000000000E+000   0.00000000000E+000   0.00000000000E+000   0.00000000000E+000   0.00000000000E+000  -2.41346861249E+007   0.00000000000E+000   1.76471002267E+004   0.00000000000E+000   0.00000000000E+000   0.00000000000E+000   0.00000000000E+000   0.00000000000E+000   0.00000000000E+000   0.00000000000E+000   0.00000000000E+000   0.00000000000E+000   0.00000000000E+000   0.00000000000E+000   0.00000000000E+000   0.00000000000E+000   0.00000000000E+000   0.00000000000E+000   0.00000000000E+000   0.00000000000E+000   0.00000000000E+000   0.00000000000E+000   0.00000000000E+000
     0.00000000000E+000   2.03836687494E+008  -1.36527664770E+004  -2.13421486209E+009   0.00000000000E+000   8.88084589332E+004   0.00000000000E+000   0.00000000000E+000   0.00000000000E+000  -2.78327383333E+009   0.00000000000E+000   0.00000000000E+000   0.00000000000E+000  -9.82009770033E+007   0.00000000000E+000  -1.13246530020E+010  -1.14591559914E+002   5.29413006802E+004   0.00000000000E+000  -2.03836687494E+008   1.36527664770E+004   0.00000000000E+000   0.00000000000E+000   0.00000000000E+000   0.00000000000E+000   0.00000000000E+000   0.00000000000E+000   0.00000000000E+000   0.00000000000E+000   0.00000000000E+000   0.00000000000E+000   0.00000000000E+000   0.00000000000E+000   0.00000000000E+000   0.00000000000E+000   0.00000000000E+000   0.00000000000E+000
    -2.03836654754E+008   0.00000000000E+000  -6.35819484374E+004   0.00000000000E+000  -2.13398109531E+009   0.00000000000E+000   0.00000000000E+000   0.00000000000E+000   0.00000000000E+000   0.00000000000E+000  -2.78337421554E+009   0.00000000000E+000   9.82036617200E+007   0.00000000000E+000   1.93168638404E+004  -2.29183119828E+002  -1.13240534590E+010   0.00000000000E+000   2.03836654754E+008   0.00000000000E+000   6.75108020999E+004   0.00000000000E+000   0.00000000000E+000   0.00000000000E+000   0.00000000000E+000   0.00000000000E+000   0.00000000000E+000   0.00000000000E+000   0.00000000000E+000   0.00000000000E+000   0.00000000000E+000   0.00000000000E+000   0.00000000000E+000   0.00000000000E+000   0.00000000000E+000   0.00000000000E+000   0.00000000000E+000
     1.36573706024E+004   6.74423796810E+004   0.00000000000E+000   0.00000000000E+000   0.00000000000E+000   0.00000000000E+000   0.00000000000E+000   0.00000000000E+000   0.00000000000E+000   0.00000000000E+000   0.00000000000E+000  -2.51327457496E+009   0.00000000000E+000   1.55363653293E+003   0.00000000000E+000   4.40412069858E+004   0.00000000000E+000  -1.95913504720E+010  -1.36573706024E+004  -6.74423796810E+004   0.00000000000E+000   0.00000000000E+000   0.00000000000E+000   0.00000000000E+000   0.00000000000E+000   0.00000000000E+000   0.00000000000E+000   0.00000000000E+000   0.00000000000E+000   0.00000000000E+000   0.00000000000E+000   0.00000000000E+000   0.00000000000E+000   0.00000000000E+000   0.00000000000E+000   0.00000000000E+000   0.00000000000E+000
