
Linearized model: Predictions were generated on 13-Feb-2024 at 12:12:09 using OpenFAST, compiled as a 64-bit application using single precision at commit v3.5.1
 linked with  NWTC Subroutine Library; ElastoDyn; InflowWind; AeroDyn; ServoDyn; HydroDyn; MAP++ (<1.20.10>, <Oct-20-2023>)

Description from the FAST input file: CCT-9 Campign 4 model. Input files to be run with OpenFAST 3.5.0. GitHub branch from Lu Wang (https://github.com/luwang00/openfast/tree/dev) compiled on March 7, 2023.

Simulation information:
   Simulation time:                   773.5250 s
   Rotor Speed:                         0.7920 rad/s
   Azimuth:                             2.4462 rad
   Wind Speed:                         24.0000 m/s
   Number of continuous states:        22
   Number of discrete states:           0
   Number of constraint states:         0
   Number of inputs:                 1890
   Number of outputs:                  25
   Jacobians included in this file?    No

Order of continuous states:
   Row/Column Operating Point                                                   Rotating Frame? Derivative Order Description
   ---------- ---------------                                                   --------------- ---------------- -----------
          1     6.82149124146E+000                                                     F               2         Platform horizontal surge translation DOF (internal DOF index = DOF_Sg), m
          2    -8.26118946075E-001                                                     F               2         Platform horizontal sway translation DOF (internal DOF index = DOF_Sw), m
          3    -1.05242207646E-001                                                     F               2         Platform vertical heave translation DOF (internal DOF index = DOF_Hv), m
          4     5.43675944209E-002                                                     F               2         Platform roll tilt rotation DOF (internal DOF index = DOF_R), rad
          5     9.51086282730E-002                                                     F               2         Platform pitch tilt rotation DOF (internal DOF index = DOF_P), rad
          6    -9.32266563177E-003                                                     F               2         Platform yaw rotation DOF (internal DOF index = DOF_Y), rad
          7     5.72030484676E-001                                                     F               2         1st tower fore-aft bending mode DOF (internal DOF index = DOF_TFA1), m
          8     2.73021101952E-001                                                     F               2         1st tower side-to-side bending mode DOF (internal DOF index = DOF_TSS1), m
          9     1.48680154234E-003                                                     F               2         2nd tower fore-aft bending mode DOF (internal DOF index = DOF_TFA2), m
         10    -3.01141728414E-004                                                     F               2         2nd tower side-to-side bending mode DOF (internal DOF index = DOF_TSS2), m
         11     8.75359654427E-001                                                     F               2         Variable speed generator DOF (internal DOF index = DOF_GeAz), rad
         12    -7.71915481891E-004                                                     F               2         First time derivative of Platform horizontal surge translation DOF (internal DOF index = DOF_Sg), m/s
         13    -7.98477500211E-004                                                     F               2         First time derivative of Platform horizontal sway translation DOF (internal DOF index = DOF_Sw), m/s
         14    -1.11154443584E-003                                                     F               2         First time derivative of Platform vertical heave translation DOF (internal DOF index = DOF_Hv), m/s
         15     9.06441564439E-005                                                     F               2         First time derivative of Platform roll tilt rotation DOF (internal DOF index = DOF_R), rad/s
         16    -3.11367475661E-005                                                     F               2         First time derivative of Platform pitch tilt rotation DOF (internal DOF index = DOF_P), rad/s
         17    -1.13109513222E-006                                                     F               2         First time derivative of Platform yaw rotation DOF (internal DOF index = DOF_Y), rad/s
         18     6.36694487184E-003                                                     F               2         First time derivative of 1st tower fore-aft bending mode DOF (internal DOF index = DOF_TFA1), m/s
         19    -1.93635541946E-002                                                     F               2         First time derivative of 1st tower side-to-side bending mode DOF (internal DOF index = DOF_TSS1), m/s
         20     3.32852250722E-005                                                     F               2         First time derivative of 2nd tower fore-aft bending mode DOF (internal DOF index = DOF_TFA2), m/s
         21     1.15272841867E-005                                                     F               2         First time derivative of 2nd tower side-to-side bending mode DOF (internal DOF index = DOF_TSS2), m/s
         22     7.91959702969E-001                                                     F               2         First time derivative of Variable speed generator DOF (internal DOF index = DOF_GeAz), rad/s

Order of continuous state derivatives:
   Row/Column Operating Point                                                   Rotating Frame? Derivative Order Description
   ---------- ---------------                                                   --------------- ---------------- -----------
          1    -7.71915481891E-004                                                     F               2         First time derivative of Platform horizontal surge translation DOF (internal DOF index = DOF_Sg), m/s
          2    -7.98477500211E-004                                                     F               2         First time derivative of Platform horizontal sway translation DOF (internal DOF index = DOF_Sw), m/s
          3    -1.11154443584E-003                                                     F               2         First time derivative of Platform vertical heave translation DOF (internal DOF index = DOF_Hv), m/s
          4     9.06441564439E-005                                                     F               2         First time derivative of Platform roll tilt rotation DOF (internal DOF index = DOF_R), rad/s
          5    -3.11367475661E-005                                                     F               2         First time derivative of Platform pitch tilt rotation DOF (internal DOF index = DOF_P), rad/s
          6    -1.13109513222E-006                                                     F               2         First time derivative of Platform yaw rotation DOF (internal DOF index = DOF_Y), rad/s
          7     6.36694487184E-003                                                     F               2         First time derivative of 1st tower fore-aft bending mode DOF (internal DOF index = DOF_TFA1), m/s
          8    -1.93635541946E-002                                                     F               2         First time derivative of 1st tower side-to-side bending mode DOF (internal DOF index = DOF_TSS1), m/s
          9     3.32852250722E-005                                                     F               2         First time derivative of 2nd tower fore-aft bending mode DOF (internal DOF index = DOF_TFA2), m/s
         10     1.15272841867E-005                                                     F               2         First time derivative of 2nd tower side-to-side bending mode DOF (internal DOF index = DOF_TSS2), m/s
         11     7.91959702969E-001                                                     F               2         First time derivative of Variable speed generator DOF (internal DOF index = DOF_GeAz), rad/s
         12     1.09951570630E-002                                                     F               2         First time derivative of First time derivative of Platform horizontal surge translation DOF (internal DOF index = DOF_Sg), m/s/s
         13    -1.87619542703E-003                                                     F               2         First time derivative of First time derivative of Platform horizontal sway translation DOF (internal DOF index = DOF_Sw), m/s/s
         14    -2.17176135629E-003                                                     F               2         First time derivative of First time derivative of Platform vertical heave translation DOF (internal DOF index = DOF_Hv), m/s/s
         15     1.27491191961E-004                                                     F               2         First time derivative of First time derivative of Platform roll tilt rotation DOF (internal DOF index = DOF_R), rad/s/s
         16     6.11704424955E-004                                                     F               2         First time derivative of First time derivative of Platform pitch tilt rotation DOF (internal DOF index = DOF_P), rad/s/s
         17     5.05220414198E-005                                                     F               2         First time derivative of First time derivative of Platform yaw rotation DOF (internal DOF index = DOF_Y), rad/s/s
         18    -1.40799343586E-001                                                     F               2         First time derivative of First time derivative of 1st tower fore-aft bending mode DOF (internal DOF index = DOF_TFA1), m/s/s
         19    -2.16928925365E-002                                                     F               2         First time derivative of First time derivative of 1st tower side-to-side bending mode DOF (internal DOF index = DOF_TSS1), m/s/s
         20    -2.39644572139E-003                                                     F               2         First time derivative of First time derivative of 2nd tower fore-aft bending mode DOF (internal DOF index = DOF_TFA2), m/s/s
         21    -4.37839880760E-005                                                     F               2         First time derivative of First time derivative of 2nd tower side-to-side bending mode DOF (internal DOF index = DOF_TSS2), m/s/s
         22     9.36477794312E-004                                                     F               2         First time derivative of First time derivative of Variable speed generator DOF (internal DOF index = DOF_GeAz), rad/s/s

Order of inputs:
     Column   Operating Point                                                   Rotating Frame? Derivative Order Description
   ---------- ---------------                                                   --------------- ---------------- -----------
          1     4.04423858643E+002                                                     F               0         Blade 1 X force, node 1, N
          2    -1.70962814331E+002                                                     F               0         Blade 1 Y force, node 1, N
          3     4.46401596069E+001                                                     F               0         Blade 1 Z force, node 1, N
          4     1.55605847168E+003                                                     F               0         Blade 1 X force, node 2, N
          5    -2.68082122803E+002                                                     F               0         Blade 1 Y force, node 2, N
          6    -1.22876792908E+002                                                     F               0         Blade 1 Z force, node 2, N
          7     1.74889892578E+003                                                     F               0         Blade 1 X force, node 3, N
          8     9.65744628906E+001                                                     F               0         Blade 1 Y force, node 3, N
          9    -4.38912658691E+002                                                     F               0         Blade 1 Z force, node 3, N
         10     2.10471362305E+003                                                     F               0         Blade 1 X force, node 4, N
         11     4.31825317383E+002                                                     F               0         Blade 1 Y force, node 4, N
         12    -7.66814025879E+002                                                     F               0         Blade 1 Z force, node 4, N
         13     2.46054614258E+003                                                     F               0         Blade 1 X force, node 5, N
         14     7.67082702637E+002                                                     F               0         Blade 1 Y force, node 5, N
         15    -1.09472412109E+003                                                     F               0         Blade 1 Z force, node 5, N
         16     2.81636474609E+003                                                     F               0         Blade 1 X force, node 6, N
         17     1.10233728027E+003                                                     F               0         Blade 1 Y force, node 6, N
         18    -1.42262915039E+003                                                     F               0         Blade 1 Z force, node 6, N
         19     3.17216210938E+003                                                     F               0         Blade 1 X force, node 7, N
         20     1.43758203125E+003                                                     F               0         Blade 1 Y force, node 7, N
         21    -1.75052258301E+003                                                     F               0         Blade 1 Z force, node 7, N
         22     3.52797680664E+003                                                     F               0         Blade 1 X force, node 8, N
         23     1.77283300781E+003                                                     F               0         Blade 1 Y force, node 8, N
         24    -2.07842382812E+003                                                     F               0         Blade 1 Z force, node 8, N
         25     3.88379150391E+003                                                     F               0         Blade 1 X force, node 9, N
         26     2.10808398438E+003                                                     F               0         Blade 1 Y force, node 9, N
         27    -2.40632543945E+003                                                     F               0         Blade 1 Z force, node 9, N
         28     4.23960644531E+003                                                     F               0         Blade 1 X force, node 10, N
         29     2.44333471680E+003                                                     F               0         Blade 1 Y force, node 10, N
         30    -2.73422656250E+003                                                     F               0         Blade 1 Z force, node 10, N
         31     4.59542138672E+003                                                     F               0         Blade 1 X force, node 11, N
         32     2.77858544922E+003                                                     F               0         Blade 1 Y force, node 11, N
         33    -3.06212817383E+003                                                     F               0         Blade 1 Z force, node 11, N
         34     4.95127001953E+003                                                     F               0         Blade 1 X force, node 12, N
         35     3.11385864258E+003                                                     F               0         Blade 1 Y force, node 12, N
         36    -3.39005346680E+003                                                     F               0         Blade 1 Z force, node 12, N
         37     5.30708837891E+003                                                     F               0         Blade 1 X force, node 13, N
         38     3.44911303711E+003                                                     F               0         Blade 1 Y force, node 13, N
         39    -3.71795825195E+003                                                     F               0         Blade 1 Z force, node 13, N
         40     5.66286962891E+003                                                     F               0         Blade 1 X force, node 14, N
         41     3.78434301758E+003                                                     F               0         Blade 1 Y force, node 14, N
         42    -4.04583666992E+003                                                     F               0         Blade 1 Z force, node 14, N
         43     6.01872460938E+003                                                     F               0         Blade 1 X force, node 15, N
         44     4.11962158203E+003                                                     F               0         Blade 1 Y force, node 15, N
         45    -4.37376757812E+003                                                     F               0         Blade 1 Z force, node 15, N
         46     6.37449755859E+003                                                     F               0         Blade 1 X force, node 16, N
         47     4.45484326172E+003                                                     F               0         Blade 1 Y force, node 16, N
         48    -4.70163867188E+003                                                     F               0         Blade 1 Z force, node 16, N
         49     7.79045214844E+003                                                     F               0         Blade 1 X force, node 17, N
         50     5.53254882812E+003                                                     F               0         Blade 1 Y force, node 17, N
         51    -5.81265576172E+003                                                     F               0         Blade 1 Z force, node 17, N
         52     5.83032421875E+003                                                     F               0         Blade 1 X force, node 18, N
         53     4.07548779297E+003                                                     F               0         Blade 1 Y force, node 18, N
         54    -4.30098486328E+003                                                     F               0         Blade 1 Z force, node 18, N
         55     6.99930322266E+003                                                     F               0         Blade 1 X force, node 19, N
         56     4.76504980469E+003                                                     F               0         Blade 1 Y force, node 19, N
         57    -5.06688378906E+003                                                     F               0         Blade 1 Z force, node 19, N
         58     5.84528027344E+003                                                     F               0         Blade 1 X force, node 20, N
         59     3.87672802734E+003                                                     F               0         Blade 1 Y force, node 20, N
         60    -4.15384667969E+003                                                     F               0         Blade 1 Z force, node 20, N
         61     8.42547656250E+003                                                     F               0         Blade 1 X force, node 21, N
         62     5.42040527344E+003                                                     F               0         Blade 1 Y force, node 21, N
         63    -5.86073046875E+003                                                     F               0         Blade 1 Z force, node 21, N
         64     7.25356640625E+003                                                     F               0         Blade 1 X force, node 22, N
         65     4.52955224609E+003                                                     F               0         Blade 1 Y force, node 22, N
         66    -4.94203662109E+003                                                     F               0         Blade 1 Z force, node 22, N
         67     7.28497167969E+003                                                     F               0         Blade 1 X force, node 23, N
         68     4.42398291016E+003                                                     F               0         Blade 1 Y force, node 23, N
         69    -4.86879394531E+003                                                     F               0         Blade 1 Z force, node 23, N
         70     7.44312207031E+003                                                     F               0         Blade 1 X force, node 24, N
         71     4.39561425781E+003                                                     F               0         Blade 1 Y force, node 24, N
         72    -4.88043408203E+003                                                     F               0         Blade 1 Z force, node 24, N
         73     7.46404638672E+003                                                     F               0         Blade 1 X force, node 25, N
         74     4.29188964844E+003                                                     F               0         Blade 1 Y force, node 25, N
         75    -4.80639355469E+003                                                     F               0         Blade 1 Z force, node 25, N
         76     7.52587255859E+003                                                     F               0         Blade 1 X force, node 26, N
         77     4.21409326172E+003                                                     F               0         Blade 1 Y force, node 26, N
         78    -4.76051171875E+003                                                     F               0         Blade 1 Z force, node 26, N
         79     8.82326367188E+003                                                     F               0         Blade 1 X force, node 27, N
         80     4.80229980469E+003                                                     F               0         Blade 1 Y force, node 27, N
         81    -5.47664892578E+003                                                     F               0         Blade 1 Z force, node 27, N
         82     6.38681787109E+003                                                     F               0         Blade 1 X force, node 28, N
         83     3.38220825195E+003                                                     F               0         Blade 1 Y force, node 28, N
         84    -3.89327465820E+003                                                     F               0         Blade 1 Z force, node 28, N
         85     7.64956884766E+003                                                     F               0         Blade 1 X force, node 29, N
         86     3.95733837891E+003                                                     F               0         Blade 1 Y force, node 29, N
         87    -4.59227783203E+003                                                     F               0         Blade 1 Z force, node 29, N
         88     6.37592675781E+003                                                     F               0         Blade 1 X force, node 30, N
         89     3.22126684570E+003                                                     F               0         Blade 1 Y force, node 30, N
         90    -3.76931958008E+003                                                     F               0         Blade 1 Z force, node 30, N
         91     8.98025488281E+003                                                     F               0         Blade 1 X force, node 31, N
         92     4.41420849609E+003                                                     F               0         Blade 1 Y force, node 31, N
         93    -5.21608691406E+003                                                     F               0         Blade 1 Z force, node 31, N
         94     7.66418896484E+003                                                     F               0         Blade 1 X force, node 32, N
         95     3.66878515625E+003                                                     F               0         Blade 1 Y force, node 32, N
         96    -4.37718212891E+003                                                     F               0         Blade 1 Z force, node 32, N
         97     7.64312500000E+003                                                     F               0         Blade 1 X force, node 33, N
         98     3.56662622070E+003                                                     F               0         Blade 1 Y force, node 33, N
         99    -4.29554101562E+003                                                     F               0         Blade 1 Z force, node 33, N
        100     7.61672851562E+003                                                     F               0         Blade 1 X force, node 34, N
        101     3.46411596680E+003                                                     F               0         Blade 1 Y force, node 34, N
        102    -4.21251757812E+003                                                     F               0         Blade 1 Z force, node 34, N
        103     7.56117333984E+003                                                     F               0         Blade 1 X force, node 35, N
        104     3.35655273438E+003                                                     F               0         Blade 1 Y force, node 35, N
        105    -4.11957324219E+003                                                     F               0         Blade 1 Z force, node 35, N
        106     7.49631396484E+003                                                     F               0         Blade 1 X force, node 36, N
        107     3.24683007812E+003                                                     F               0         Blade 1 Y force, node 36, N
        108    -4.02305078125E+003                                                     F               0         Blade 1 Z force, node 36, N
        109     8.67533203125E+003                                                     F               0         Blade 1 X force, node 37, N
        110     3.65696679688E+003                                                     F               0         Blade 1 Y force, node 37, N
        111    -4.57979541016E+003                                                     F               0         Blade 1 Z force, node 37, N
        112     6.09163623047E+003                                                     F               0         Blade 1 X force, node 38, N
        113     2.50340307617E+003                                                     F               0         Blade 1 Y force, node 38, N
        114    -3.16711669922E+003                                                     F               0         Blade 1 Z force, node 38, N
        115     7.22584033203E+003                                                     F               0         Blade 1 X force, node 39, N
        116     2.90634277344E+003                                                     F               0         Blade 1 Y force, node 39, N
        117    -3.70904467773E+003                                                     F               0         Blade 1 Z force, node 39, N
        118     5.96353271484E+003                                                     F               0         Blade 1 X force, node 40, N
        119     2.34483398438E+003                                                     F               0         Blade 1 Y force, node 40, N
        120    -3.02043261719E+003                                                     F               0         Blade 1 Z force, node 40, N
        121     8.14025976562E+003                                                     F               0         Blade 1 X force, node 41, N
        122     3.11649072266E+003                                                     F               0         Blade 1 Y force, node 41, N
        123    -4.05923486328E+003                                                     F               0         Blade 1 Z force, node 41, N
        124     6.84419580078E+003                                                     F               0         Blade 1 X force, node 42, N
        125     2.55357910156E+003                                                     F               0         Blade 1 Y force, node 42, N
        126    -3.36249877930E+003                                                     F               0         Blade 1 Z force, node 42, N
        127     6.69693652344E+003                                                     F               0         Blade 1 X force, node 43, N
        128     2.43513110352E+003                                                     F               0         Blade 1 Y force, node 43, N
        129    -3.24213989258E+003                                                     F               0         Blade 1 Z force, node 43, N
        130     6.58014892578E+003                                                     F               0         Blade 1 X force, node 44, N
        131     2.32924780273E+003                                                     F               0         Blade 1 Y force, node 44, N
        132    -3.13765527344E+003                                                     F               0         Blade 1 Z force, node 44, N
        133     6.34558740234E+003                                                     F               0         Blade 1 X force, node 45, N
        134     2.18978051758E+003                                                     F               0         Blade 1 Y force, node 45, N