
Linearized model: Predictions were generated on 12-Feb-2024 at 15:30:16 using OpenFAST, compiled as a 64-bit application using single precision at commit v3.5.1
 linked with  NWTC Subroutine Library; ElastoDyn; InflowWind; AeroDyn; ServoDyn; HydroDyn; MAP++ (<1.20.10>, <Oct-20-2023>)

Description from the FAST input file: CCT-9 Campign 4 model. Input files to be run with OpenFAST 3.5.0. GitHub branch from Lu Wang (https://github.com/luwang00/openfast/tree/dev) compiled on March 7, 2023.

Simulation information:
   Simulation time:                  1006.9750 s
   Rotor Speed:                         1.0417 rad/s
   Azimuth:                             2.0211 rad
   Wind Speed:                         12.0000 m/s
   Number of continuous states:        22
   Number of discrete states:           0
   Number of constraint states:         0
   Number of inputs:                 1890
   Number of outputs:                  25
   Jacobians included in this file?    No

Order of continuous states:
   Row/Column Operating Point                     Rotating Frame? Derivative Order Description
   ---------- ---------------                     --------------- ---------------- -----------
          1    1.229E+01                                 F               2         Platform horizontal surge translation DOF (internal DOF index = DOF_Sg), m
          2   -2.189E-01                                 F               2         Platform horizontal sway translation DOF (internal DOF index = DOF_Sw), m
          3   -2.497E-01                                 F               2         Platform vertical heave translation DOF (internal DOF index = DOF_Hv), m
          4    5.348E-02                                 F               2         Platform roll tilt rotation DOF (internal DOF index = DOF_R), rad
          5    1.567E-01                                 F               2         Platform pitch tilt rotation DOF (internal DOF index = DOF_P), rad
          6    9.869E-03                                 F               2         Platform yaw rotation DOF (internal DOF index = DOF_Y), rad
          7    1.082E+00                                 F               2         1st tower fore-aft bending mode DOF (internal DOF index = DOF_TFA1), m
          8    2.329E-01                                 F               2         1st tower side-to-side bending mode DOF (internal DOF index = DOF_TSS1), m
          9    1.607E-03                                 F               2         2nd tower fore-aft bending mode DOF (internal DOF index = DOF_TFA2), m
         10    9.572E-05                                 F               2         2nd tower side-to-side bending mode DOF (internal DOF index = DOF_TSS2), m
         11    4.503E-01                                 F               2         Variable speed generator DOF (internal DOF index = DOF_GeAz), rad
         12   -1.196E-04                                 F               2         First time derivative of Platform horizontal surge translation DOF (internal DOF index = DOF_Sg), m/s
         13    1.269E-04                                 F               2         First time derivative of Platform horizontal sway translation DOF (internal DOF index = DOF_Sw), m/s
         14    5.313E-03                                 F               2         First time derivative of Platform vertical heave translation DOF (internal DOF index = DOF_Hv), m/s
         15    2.446E-04                                 F               2         First time derivative of Platform roll tilt rotation DOF (internal DOF index = DOF_R), rad/s
         16   -1.012E-04                                 F               2         First time derivative of Platform pitch tilt rotation DOF (internal DOF index = DOF_P), rad/s
         17    2.600E-04                                 F               2         First time derivative of Platform yaw rotation DOF (internal DOF index = DOF_Y), rad/s
         18    6.195E-04                                 F               2         First time derivative of 1st tower fore-aft bending mode DOF (internal DOF index = DOF_TFA1), m/s
         19    2.495E-03                                 F               2         First time derivative of 1st tower side-to-side bending mode DOF (internal DOF index = DOF_TSS1), m/s
         20    1.298E-05                                 F               2         First time derivative of 2nd tower fore-aft bending mode DOF (internal DOF index = DOF_TFA2), m/s
         21   -1.178E-06                                 F               2         First time derivative of 2nd tower side-to-side bending mode DOF (internal DOF index = DOF_TSS2), m/s
         22    1.042E+00                                 F               2         First time derivative of Variable speed generator DOF (internal DOF index = DOF_GeAz), rad/s

Order of continuous state derivatives:
   Row/Column Operating Point                     Rotating Frame? Derivative Order Description
   ---------- ---------------                     --------------- ---------------- -----------
          1   -1.196E-04                                 F               2         First time derivative of Platform horizontal surge translation DOF (internal DOF index = DOF_Sg), m/s
          2    1.269E-04                                 F               2         First time derivative of Platform horizontal sway translation DOF (internal DOF index = DOF_Sw), m/s
          3    5.313E-03                                 F               2         First time derivative of Platform vertical heave translation DOF (internal DOF index = DOF_Hv), m/s
          4    2.446E-04                                 F               2         First time derivative of Platform roll tilt rotation DOF (internal DOF index = DOF_R), rad/s
          5   -1.012E-04                                 F               2         First time derivative of Platform pitch tilt rotation DOF (internal DOF index = DOF_P), rad/s
          6    2.600E-04                                 F               2         First time derivative of Platform yaw rotation DOF (internal DOF index = DOF_Y), rad/s
          7    6.195E-04                                 F               2         First time derivative of 1st tower fore-aft bending mode DOF (internal DOF index = DOF_TFA1), m/s
          8    2.495E-03                                 F               2         First time derivative of 1st tower side-to-side bending mode DOF (internal DOF index = DOF_TSS1), m/s
          9    1.298E-05                                 F               2         First time derivative of 2nd tower fore-aft bending mode DOF (internal DOF index = DOF_TFA2), m/s
         10   -1.178E-06                                 F               2         First time derivative of 2nd tower side-to-side bending mode DOF (internal DOF index = DOF_TSS2), m/s
         11    1.042E+00                                 F               2         First time derivative of Variable speed generator DOF (internal DOF index = DOF_GeAz), rad/s
         12    2.758E-04                                 F               2         First time derivative of First time derivative of Platform horizontal surge translation DOF (internal DOF index = DOF_Sg), m/s/s
         13   -5.594E-04                                 F               2         First time derivative of First time derivative of Platform horizontal sway translation DOF (internal DOF index = DOF_Sw), m/s/s
         14    6.953E-04                                 F               2         First time derivative of First time derivative of Platform vertical heave translation DOF (internal DOF index = DOF_Hv), m/s/s
         15   -3.778E-04                                 F               2         First time derivative of First time derivative of Platform roll tilt rotation DOF (internal DOF index = DOF_R), rad/s/s
         16   -3.835E-06                                 F               2         First time derivative of First time derivative of Platform pitch tilt rotation DOF (internal DOF index = DOF_P), rad/s/s
         17    1.454E-04                                 F               2         First time derivative of First time derivative of Platform yaw rotation DOF (internal DOF index = DOF_Y), rad/s/s
         18    1.448E-03                                 F               2         First time derivative of First time derivative of 1st tower fore-aft bending mode DOF (internal DOF index = DOF_TFA1), m/s/s
         19   -2.560E-03                                 F               2         First time derivative of First time derivative of 1st tower side-to-side bending mode DOF (internal DOF index = DOF_TSS1), m/s/s
         20    1.892E-05                                 F               2         First time derivative of First time derivative of 2nd tower fore-aft bending mode DOF (internal DOF index = DOF_TFA2), m/s/s
         21    8.751E-06                                 F               2         First time derivative of First time derivative of 2nd tower side-to-side bending mode DOF (internal DOF index = DOF_TSS2), m/s/s
         22    6.703E-04                                 F               2         First time derivative of First time derivative of Variable speed generator DOF (internal DOF index = DOF_GeAz), rad/s/s

Order of inputs:
     Column   Operating Point                     Rotating Frame? Derivative Order Description
   ---------- ---------------                     --------------- ---------------- -----------
          1    1.594E+02                                 F               0         Blade 1 X force, node 1, N
          2   -9.649E+01                                 F               0         Blade 1 Y force, node 1, N
          3    1.419E+02                                 F               0         Blade 1 Z force, node 1, N
          4    5.367E+02                                 F               0         Blade 1 X force, node 2, N
          5   -1.572E+02                                 F               0         Blade 1 Y force, node 2, N
          6    1.645E+02                                 F               0         Blade 1 Z force, node 2, N
          7    6.195E+02                                 F               0         Blade 1 X force, node 3, N
          8   -1.088E+02                                 F               0         Blade 1 Y force, node 3, N
          9    5.433E+01                                 F               0         Blade 1 Z force, node 3, N
         10    7.613E+02                                 F               0         Blade 1 X force, node 4, N
         11   -8.155E+01                                 F               0         Blade 1 Y force, node 4, N
         12   -3.065E+01                                 F               0         Blade 1 Z force, node 4, N
         13    9.031E+02                                 F               0         Blade 1 X force, node 5, N
         14   -5.428E+01                                 F               0         Blade 1 Y force, node 5, N
         15   -1.156E+02                                 F               0         Blade 1 Z force, node 5, N
         16    1.045E+03                                 F               0         Blade 1 X force, node 6, N
         17   -2.700E+01                                 F               0         Blade 1 Y force, node 6, N
         18   -2.006E+02                                 F               0         Blade 1 Z force, node 6, N
         19    1.187E+03                                 F               0         Blade 1 X force, node 7, N
         20    2.726E-01                                 F               0         Blade 1 Y force, node 7, N
         21   -2.856E+02                                 F               0         Blade 1 Z force, node 7, N
         22    1.328E+03                                 F               0         Blade 1 X force, node 8, N
         23    2.755E+01                                 F               0         Blade 1 Y force, node 8, N
         24   -3.706E+02                                 F               0         Blade 1 Z force, node 8, N
         25    1.470E+03                                 F               0         Blade 1 X force, node 9, N
         26    5.482E+01                                 F               0         Blade 1 Y force, node 9, N
         27   -4.556E+02                                 F               0         Blade 1 Z force, node 9, N
         28    1.612E+03                                 F               0         Blade 1 X force, node 10, N
         29    8.209E+01                                 F               0         Blade 1 Y force, node 10, N
         30   -5.406E+02                                 F               0         Blade 1 Z force, node 10, N
         31    1.754E+03                                 F               0         Blade 1 X force, node 11, N
         32    1.094E+02                                 F               0         Blade 1 Y force, node 11, N
         33   -6.255E+02                                 F               0         Blade 1 Z force, node 11, N
         34    1.896E+03                                 F               0         Blade 1 X force, node 12, N
         35    1.366E+02                                 F               0         Blade 1 Y force, node 12, N
         36   -7.105E+02                                 F               0         Blade 1 Z force, node 12, N
         37    2.037E+03                                 F               0         Blade 1 X force, node 13, N
         38    1.639E+02                                 F               0         Blade 1 Y force, node 13, N
         39   -7.955E+02                                 F               0         Blade 1 Z force, node 13, N
         40    2.179E+03                                 F               0         Blade 1 X force, node 14, N
         41    1.912E+02                                 F               0         Blade 1 Y force, node 14, N
         42   -8.805E+02                                 F               0         Blade 1 Z force, node 14, N
         43    2.321E+03                                 F               0         Blade 1 X force, node 15, N
         44    2.185E+02                                 F               0         Blade 1 Y force, node 15, N
         45   -9.655E+02                                 F               0         Blade 1 Z force, node 15, N
         46    2.463E+03                                 F               0         Blade 1 X force, node 16, N
         47    2.457E+02                                 F               0         Blade 1 Y force, node 16, N
         48   -1.050E+03                                 F               0         Blade 1 Z force, node 16, N
         49    3.025E+03                                 F               0         Blade 1 X force, node 17, N
         50    3.159E+02                                 F               0         Blade 1 Y force, node 17, N
         51   -1.317E+03                                 F               0         Blade 1 Z force, node 17, N
         52    2.344E+03                                 F               0         Blade 1 X force, node 18, N
         53    2.400E+02                                 F               0         Blade 1 Y force, node 18, N
         54   -1.011E+03                                 F               0         Blade 1 Z force, node 18, N
         55    2.930E+03                                 F               0         Blade 1 X force, node 19, N
         56    2.883E+02                                 F               0         Blade 1 Y force, node 19, N
         57   -1.242E+03                                 F               0         Blade 1 Z force, node 19, N
         58    2.540E+03                                 F               0         Blade 1 X force, node 20, N
         59    2.409E+02                                 F               0         Blade 1 Y force, node 20, N
         60   -1.060E+03                                 F               0         Blade 1 Z force, node 20, N
         61    3.821E+03                                 F               0         Blade 1 X force, node 21, N
         62    3.469E+02                                 F               0         Blade 1 Y force, node 21, N
         63   -1.566E+03                                 F               0         Blade 1 Z force, node 21, N
         64    3.430E+03                                 F               0         Blade 1 X force, node 22, N
         65    2.977E+02                                 F               0         Blade 1 Y force, node 22, N
         66   -1.380E+03                                 F               0         Blade 1 Z force, node 22, N
         67    3.575E+03                                 F               0         Blade 1 X force, node 23, N
         68    2.980E+02                                 F               0         Blade 1 Y force, node 23, N
         69   -1.415E+03                                 F               0         Blade 1 Z force, node 23, N
         70    3.784E+03                                 F               0         Blade 1 X force, node 24, N
         71    3.032E+02                                 F               0         Blade 1 Y force, node 24, N
         72   -1.475E+03                                 F               0         Blade 1 Z force, node 24, N
         73    3.927E+03                                 F               0         Blade 1 X force, node 25, N
         74    3.023E+02                                 F               0         Blade 1 Y force, node 25, N
         75   -1.508E+03                                 F               0         Blade 1 Z force, node 25, N
         76    4.091E+03                                 F               0         Blade 1 X force, node 26, N
         77    3.028E+02                                 F               0         Blade 1 Y force, node 26, N
         78   -1.548E+03                                 F               0         Blade 1 Z force, node 26, N
         79    4.959E+03                                 F               0         Blade 1 X force, node 27, N
         80    3.526E+02                                 F               0         Blade 1 Y force, node 27, N
         81   -1.850E+03                                 F               0         Blade 1 Z force, node 27, N
         82    3.715E+03                                 F               0         Blade 1 X force, node 28, N
         83    2.539E+02                                 F               0         Blade 1 Y force, node 28, N
         84   -1.367E+03                                 F               0         Blade 1 Z force, node 28, N
         85    4.583E+03                                 F               0         Blade 1 X force, node 29, N
         86    3.029E+02                                 F               0         Blade 1 Y force, node 29, N
         87   -1.667E+03                                 F               0         Blade 1 Z force, node 29, N
         88    3.929E+03                                 F               0         Blade 1 X force, node 30, N
         89    2.515E+02                                 F               0         Blade 1 Y force, node 30, N
         90   -1.414E+03                                 F               0         Blade 1 Z force, node 30, N
         91    5.726E+03                                 F               0         Blade 1 X force, node 31, N
         92    3.530E+02                                 F               0         Blade 1 Y force, node 31, N
         93   -2.035E+03                                 F               0         Blade 1 Z force, node 31, N
         94    5.072E+03                                 F               0         Blade 1 X force, node 32, N
         95    3.008E+02                                 F               0         Blade 1 Y force, node 32, N
         96   -1.780E+03                                 F               0         Blade 1 Z force, node 32, N
         97    5.233E+03                                 F               0         Blade 1 X force, node 33, N
         98    2.996E+02                                 F               0         Blade 1 Y force, node 33, N
         99   -1.817E+03                                 F               0         Blade 1 Z force, node 33, N
        100    5.396E+03                                 F               0         Blade 1 X force, node 34, N
        101    2.984E+02                                 F               0         Blade 1 Y force, node 34, N
        102   -1.853E+03                                 F               0         Blade 1 Z force, node 34, N
        103    5.558E+03                                 F               0         Blade 1 X force, node 35, N
        104    2.969E+02                                 F               0         Blade 1 Y force, node 35, N
        105   -1.890E+03                                 F               0         Blade 1 Z force, node 35, N
        106    5.718E+03                                 F               0         Blade 1 X force, node 36, N
        107    2.952E+02                                 F               0         Blade 1 Y force, node 36, N
        108   -1.925E+03                                 F               0         Blade 1 Z force, node 36, N
        109    6.881E+03                                 F               0         Blade 1 X force, node 37, N
        110    3.428E+02                                 F               0         Blade 1 Y force, node 37, N
        111   -2.293E+03                                 F               0         Blade 1 Z force, node 37, N
        112    5.040E+03                                 F               0         Blade 1 X force, node 38, N
        113    2.424E+02                                 F               0         Blade 1 Y force, node 38, N
        114   -1.663E+03                                 F               0         Blade 1 Z force, node 38, N
        115    6.204E+03                                 F               0         Blade 1 X force, node 39, N
        116    2.897E+02                                 F               0         Blade 1 Y force, node 39, N
        117   -2.031E+03                                 F               0         Blade 1 Z force, node 39, N
        118    5.312E+03                                 F               0         Blade 1 X force, node 40, N
        119    2.410E+02                                 F               0         Blade 1 Y force, node 40, N
        120   -1.726E+03                                 F               0         Blade 1 Z force, node 40, N
        121    7.580E+03                                 F               0         Blade 1 X force, node 41, N
        122    3.325E+02                                 F               0         Blade 1 Y force, node 41, N
        123   -2.442E+03                                 F               0         Blade 1 Z force, node 41, N
        124    6.686E+03                                 F               0         Blade 1 X force, node 42, N
        125    2.832E+02                                 F               0         Blade 1 Y force, node 42, N
        126   -2.135E+03                                 F               0         Blade 1 Z force, node 42, N
        127    6.845E+03                                 F               0         Blade 1 X force, node 43, N
        128    2.808E+02                                 F               0         Blade 1 Y force, node 43, N
        129   -2.169E+03                                 F               0         Blade 1 Z force, node 43, N
        130    7.040E+03                                 F               0         Blade 1 X force, node 44, N
        131    2.797E+02                                 F               0         Blade 1 Y force, node 44, N
        132   -2.214E+03                                 F               0         Blade 1 Z force, node 44, N
        133    7.125E+03                                 F               0         Blade 1 X force, node 45, N
        134    2.741E+02                                 F               0         Blade 1 Y force, node 45, N
        135   -2.223E+03                                 F               0         Blade 1 Z force, node 45, N
        136    7.320E+03                                 F               0         Blade 1 X force, node 46, N
        137    2.729E+02                                 F               0         Blade 1 Y force, node 46, N
        138   -2.268E+03                                 F               0         Blade 1 Z force, node 46, N
        139    8.793E+03                                 F               0         Blade 1 X force, node 47, N
        140    3.169E+02                                 F               0         Blade 1 Y force, node 47, N
        141   -2.704E+03                                 F               0         Blade 1 Z force, node 47, N
        142    6.322E+03                                 F               0         Blade 1 X force, node 48, N
        143    2.204E+02                                 F               0         Blade 1 Y force, node 48, N
        144   -1.931E+03                                 F               0         Blade 1 Z force, node 48, N
        145    7.793E+03                                 F               0         Blade 1 X force, node 49, N
        146    2.642E+02                                 F               0         Blade 1 Y force, node 49, N
        147   -2.366E+03                                 F               0         Blade 1 Z force, node 49, N
        148    6.684E+03                                 F               0         Blade 1 X force, node 50, N
        149    2.203E+02                                 F               0         Blade 1 Y force, node 50, N
        150   -2.017E+03                                 F               0         Blade 1 Z force, node 50, N
        151    9.373E+03                                 F               0         Blade 1 X force, node 51, N
        152    2.991E+02                                 F               0         Blade 1 Y force, node 51, N
        153   -2.810E+03                                 F               0         Blade 1 Z force, node 51, N
        154    8.266E+03                                 F               0         Blade 1 X force, node 52, N
        155    2.552E+02                                 F               0         Blade 1 Y force, node 52, N
        156   -2.462E+03                                 F               0         Blade 1 Z force, node 52, N
        157    8.425E+03                                 F               0         Blade 1 X force, node 53, N
        158    2.522E+02                                 F               0         Blade 1 Y force, node 53, N
        159   -2.495E+03                                 F               0         Blade 1 Z force, node 53, N
        160    8.678E+03                                 F               0         Blade 1 X force, node 54, N
        161    2.519E+02                                 F               0         Blade 1 Y force, node 54, N
        162   -2.555E+03                                 F               0         Blade 1 Z force, node 54, N
        163    8.647E+03                                 F               0         Blade 1 X force, node 55, N
        164    2.433E+02                                 F               0         Blade 1 Y force, node 55, N
        165   -2.532E+03                                 F               0         Blade 1 Z force, node 55, N
        166    8.898E+03                                 F               0         Blade 1 X force, node 56, N
        167    2.429E+02                                 F               0         Blade 1 Y force, node 56, N
        168   -2.591E+03                                 F               0         Blade 1 Z force, node 56, N
        169    1.070E+04                                 F               0         Blade 1 X force, node 57, N
        170    2.825E+02                                 F               0         Blade 1 Y force, node 57, N
        171   -3.097E+03                                 F               0         Blade 1 Z force, node 57, N
        172    7.573E+03                                 F               0         Blade 1 X force, node 58, N
        173    1.936E+02                                 F               0         Blade 1 Y force, node 58, N
        174   -2.181E+03                                 F               0         Blade 1 Z force, node 58, N
        175    9.370E+03                                 F               0         Blade 1 X force, node 59, N
        176    2.331E+02                                 F               0         Blade 1 Y force, node 59, N
        177   -2.686E+03                                 F               0         Blade 1 Z force, node 59, N
        178    8.068E+03                                 F               0         Blade 1 X force, node 60, N
        179    1.952E+02                                 F               0         Blade 1 Y force, node 60, N
        180   -2.303E+03                                 F               0         Blade 1 Z force, node 60, N
        181    1.114E+04                                 F               0         Blade 1 X force, node 61, N
        182    2.610E+02                                 F               0         Blade 1 Y force, node 61, N
        183   -3.165E+03                                 F               0         Blade 1 Z force, node 61, N
        184    9.837E+03                                 F               0         Blade 1 X force, node 62, N