
Linearized model: Predictions were generated on 13-Feb-2024 at 12:12:09 using OpenFAST, compiled as a 64-bit application using single precision at commit v3.5.1
 linked with  NWTC Subroutine Library; ElastoDyn; InflowWind; AeroDyn; ServoDyn; HydroDyn; MAP++ (<1.20.10>, <Oct-20-2023>)

Description from the FAST input file: CCT-9 Campign 4 model. Input files to be run with OpenFAST 3.5.0. GitHub branch from Lu Wang (https://github.com/luwang00/openfast/tree/dev) compiled on March 7, 2023.

Simulation information:
   Simulation time:                   776.6250 s
   Rotor Speed:                         0.7923 rad/s
   Azimuth:                             4.9014 rad
   Wind Speed:                         24.0000 m/s
   Number of continuous states:         0
   Number of discrete states:           0
   Number of constraint states:         0
   Number of inputs:                  303
   Number of outputs:                   1
   Jacobians included in this file?    No

Order of inputs:
     Column   Operating Point                                                   Rotating Frame? Derivative Order Description
   ---------- ---------------                                                   --------------- ---------------- -----------
          1    -1.08005075455E+001                                                     F               0         X-component position of node 1 (hub), m
          2     0.00000000000E+000                                                     F               0         Y-component position of node 1 (hub), m
          3     1.49740173340E+002                                                     F               0         Z-component position of node 1 (hub), m
          4     1.10862264633E+001                                                     F               0         X-component position of node 2 (blade 1, node 1), m
          5    -3.83816766739E+000                                                     F               0         Y-component position of node 2 (blade 1, node 1), m
          6     1.51078887939E+002                                                     F               0         Z-component position of node 2 (blade 1, node 1), m
          7     1.11533222198E+001                                                     F               0         X-component position of node 3 (blade 1, node 2), m
          8    -2.54386734962E+000                                                     F               0         Y-component position of node 3 (blade 1, node 2), m
          9     1.51398666382E+002                                                     F               0         Z-component position of node 3 (blade 1, node 2), m
         10     1.20657167435E+001                                                     F               0         X-component position of node 4 (blade 1, node 3), m
         11     1.50563716888E+001                                                     F               0         Y-component position of node 4 (blade 1, node 3), m
         12     1.55747116089E+002                                                     F               0         Z-component position of node 4 (blade 1, node 3), m
         13     1.22601089478E+001                                                     F               0         X-component position of node 5 (blade 1, node 4), m
         14     1.88062057495E+001                                                     F               0         Y-component position of node 5 (blade 1, node 4), m
         15     1.56673583984E+002                                                     F               0         Z-component position of node 5 (blade 1, node 4), m
         16     1.24545354843E+001                                                     F               0         X-component position of node 6 (blade 1, node 5), m
         17     2.25567550659E+001                                                     F               0         Y-component position of node 6 (blade 1, node 5), m
         18     1.57600219727E+002                                                     F               0         Z-component position of node 6 (blade 1, node 5), m
         19     1.26489286423E+001                                                     F               0         X-component position of node 7 (blade 1, node 6), m
         20     2.63066043854E+001                                                     F               0         Y-component position of node 7 (blade 1, node 6), m
         21     1.58526687622E+002                                                     F               0         Z-component position of node 7 (blade 1, node 6), m
         22     1.28433198929E+001                                                     F               0         X-component position of node 8 (blade 1, node 7), m
         23     3.00564670563E+001                                                     F               0         Y-component position of node 8 (blade 1, node 7), m
         24     1.59453155518E+002                                                     F               0         Z-component position of node 8 (blade 1, node 7), m
         25     1.30377473831E+001                                                     F               0         X-component position of node 9 (blade 1, node 8), m
         26     3.38069992065E+001                                                     F               0         Y-component position of node 9 (blade 1, node 8), m
         27     1.60379791260E+002                                                     F               0         Z-component position of node 9 (blade 1, node 8), m
         28     1.32321386337E+001                                                     F               0         X-component position of node 10 (blade 1, node 9), m
         29     3.75568656921E+001                                                     F               0         Y-component position of node 10 (blade 1, node 9), m
         30     1.61306259155E+002                                                     F               0         Z-component position of node 10 (blade 1, node 9), m
         31     1.34265317917E+001                                                     F               0         X-component position of node 11 (blade 1, node 10), m
         32     4.13067131042E+001                                                     F               0         Y-component position of node 11 (blade 1, node 10), m
         33     1.62232727051E+002                                                     F               0         Z-component position of node 11 (blade 1, node 10), m
         34     1.36209230423E+001                                                     F               0         X-component position of node 12 (blade 1, node 11), m
         35     4.50565795898E+001                                                     F               0         Y-component position of node 12 (blade 1, node 11), m
         36     1.63159194946E+002                                                     F               0         Z-component position of node 12 (blade 1, node 11), m
         37     1.38153514862E+001                                                     F               0         X-component position of node 13 (blade 1, node 12), m
         38     4.88070983887E+001                                                     F               0         Y-component position of node 13 (blade 1, node 12), m
         39     1.64085830688E+002                                                     F               0         Z-component position of node 13 (blade 1, node 12), m
         40     1.40097427368E+001                                                     F               0         X-component position of node 14 (blade 1, node 13), m
         41     5.25569610596E+001                                                     F               0         Y-component position of node 14 (blade 1, node 13), m
         42     1.65012298584E+002                                                     F               0         Z-component position of node 14 (blade 1, node 13), m
         43     1.42041358948E+001                                                     F               0         X-component position of node 15 (blade 1, node 14), m
         44     5.63068122864E+001                                                     F               0         Y-component position of node 15 (blade 1, node 14), m
         45     1.65938766479E+002                                                     F               0         Z-component position of node 15 (blade 1, node 14), m
         46     1.43985624313E+001                                                     F               0         X-component position of node 16 (blade 1, node 15), m
         47     6.00573539734E+001                                                     F               0         Y-component position of node 16 (blade 1, node 15), m
         48     1.66865402222E+002                                                     F               0         Z-component position of node 16 (blade 1, node 15), m
         49     1.45929546356E+001                                                     F               0         X-component position of node 17 (blade 1, node 16), m
         50     6.38072090149E+001                                                     F               0         Y-component position of node 17 (blade 1, node 16), m
         51     1.67791870117E+002                                                     F               0         Z-component position of node 17 (blade 1, node 16), m
         52     1.47873468399E+001                                                     F               0         X-component position of node 18 (blade 1, node 17), m
         53     6.75570755005E+001                                                     F               0         Y-component position of node 18 (blade 1, node 17), m
         54     1.68718338013E+002                                                     F               0         Z-component position of node 18 (blade 1, node 17), m
         55     1.49817390442E+001                                                     F               0         X-component position of node 19 (blade 1, node 18), m
         56     7.13069305420E+001                                                     F               0         Y-component position of node 19 (blade 1, node 18), m
         57     1.69644805908E+002                                                     F               0         Z-component position of node 19 (blade 1, node 18), m
         58     1.51761665344E+001                                                     F               0         X-component position of node 20 (blade 1, node 19), m
         59     7.50574493408E+001                                                     F               0         Y-component position of node 20 (blade 1, node 19), m
         60     1.70571426392E+002                                                     F               0         Z-component position of node 20 (blade 1, node 19), m
         61     1.53705577850E+001                                                     F               0         X-component position of node 21 (blade 1, node 20), m
         62     7.88073120117E+001                                                     F               0         Y-component position of node 21 (blade 1, node 20), m
         63     1.71497909546E+002                                                     F               0         Z-component position of node 21 (blade 1, node 20), m
         64     1.55649509430E+001                                                     F               0         X-component position of node 22 (blade 1, node 21), m
         65     8.25571670532E+001                                                     F               0         Y-component position of node 22 (blade 1, node 21), m
         66     1.72424362183E+002                                                     F               0         Z-component position of node 22 (blade 1, node 21), m
         67     1.57593774796E+001                                                     F               0         X-component position of node 23 (blade 1, node 22), m
         68     8.63077011108E+001                                                     F               0         Y-component position of node 23 (blade 1, node 22), m
         69     1.73351013184E+002                                                     F               0         Z-component position of node 23 (blade 1, node 22), m
         70     1.59537687302E+001                                                     F               0         X-component position of node 24 (blade 1, node 23), m
         71     9.00575714111E+001                                                     F               0         Y-component position of node 24 (blade 1, node 23), m
         72     1.74277481079E+002                                                     F               0         Z-component position of node 24 (blade 1, node 23), m
         73     1.61481609344E+001                                                     F               0         X-component position of node 25 (blade 1, node 24), m
         74     9.38074264526E+001                                                     F               0         Y-component position of node 25 (blade 1, node 24), m
         75     1.75203948975E+002                                                     F               0         Z-component position of node 25 (blade 1, node 24), m
         76     1.63425540924E+001                                                     F               0         X-component position of node 26 (blade 1, node 25), m
         77     9.75572738647E+001                                                     F               0         Y-component position of node 26 (blade 1, node 25), m
         78     1.76130416870E+002                                                     F               0         Z-component position of node 26 (blade 1, node 25), m
         79     1.65369815826E+001                                                     F               0         X-component position of node 27 (blade 1, node 26), m
         80     1.01307815552E+002                                                     F               0         Y-component position of node 27 (blade 1, node 26), m
         81     1.77057037354E+002                                                     F               0         Z-component position of node 27 (blade 1, node 26), m
         82     1.67313728333E+001                                                     F               0         X-component position of node 28 (blade 1, node 27), m
         83     1.05057662964E+002                                                     F               0         Y-component position of node 28 (blade 1, node 27), m
         84     1.77983520508E+002                                                     F               0         Z-component position of node 28 (blade 1, node 27), m
         85     1.68961753845E+001                                                     F               0         X-component position of node 29 (blade 1, node 28), m
         86     1.08236740112E+002                                                     F               0         Y-component position of node 29 (blade 1, node 28), m
         87     1.78768966675E+002                                                     F               0         Z-component position of node 29 (blade 1, node 28), m
         88     1.16195554733E+001                                                     F               0         X-component position of node 30 (blade 2, node 1), m
         89    -1.30697355270E+001                                                     F               0         Y-component position of node 30 (blade 2, node 1), m
         90     1.53641799927E+002                                                     F               0         Z-component position of node 30 (blade 2, node 1), m
         91     1.18151617050E+001                                                     F               0         X-component position of node 31 (blade 2, node 2), m
         92    -1.39998435974E+001                                                     F               0         Y-component position of node 31 (blade 2, node 2), m
         93     1.54579132080E+002                                                     F               0         Z-component position of node 31 (blade 2, node 2), m
         94     1.44750623703E+001                                                     F               0         X-component position of node 32 (blade 2, node 3), m
         95    -2.66478366852E+001                                                     F               0         Y-component position of node 32 (blade 2, node 3), m
         96     1.67325225830E+002                                                     F               0         Z-component position of node 32 (blade 2, node 3), m
         97     1.50417728424E+001                                                     F               0         X-component position of node 33 (blade 2, node 4), m
         98    -2.93425846100E+001                                                     F               0         Y-component position of node 33 (blade 2, node 4), m
         99     1.70040878296E+002                                                     F               0         Z-component position of node 33 (blade 2, node 4), m
        100     1.56085891724E+001                                                     F               0         X-component position of node 34 (blade 2, node 5), m
        101    -3.20378074646E+001                                                     F               0         Y-component position of node 34 (blade 2, node 5), m
        102     1.72757019043E+002                                                     F               0         Z-component position of node 34 (blade 2, node 5), m
        103     1.61753005981E+001                                                     F               0         X-component position of node 35 (blade 2, node 6), m
        104    -3.47325553894E+001                                                     F               0         Y-component position of node 35 (blade 2, node 6), m
        105     1.75472671509E+002                                                     F               0         Z-component position of node 35 (blade 2, node 6), m
        106     1.67420120239E+001                                                     F               0         X-component position of node 36 (blade 2, node 7), m
        107    -3.74273033142E+001                                                     F               0         Y-component position of node 36 (blade 2, node 7), m
        108     1.78188323975E+002                                                     F               0         Z-component position of node 36 (blade 2, node 7), m
        109     1.73088283539E+001                                                     F               0         X-component position of node 37 (blade 2, node 8), m
        110    -4.01225242615E+001                                                     F               0         Y-component position of node 37 (blade 2, node 8), m
        111     1.80904464722E+002                                                     F               0         Z-component position of node 37 (blade 2, node 8), m
        112     1.78755378723E+001                                                     F               0         X-component position of node 38 (blade 2, node 9), m
        113    -4.28172721863E+001                                                     F               0         Y-component position of node 38 (blade 2, node 9), m
        114     1.83620101929E+002                                                     F               0         Z-component position of node 38 (blade 2, node 9), m
        115     1.84422492981E+001                                                     F               0         X-component position of node 39 (blade 2, node 10), m
        116    -4.55120124817E+001                                                     F               0         Y-component position of node 39 (blade 2, node 10), m
        117     1.86335754395E+002                                                     F               0         Z-component position of node 39 (blade 2, node 10), m
        118     1.90089626312E+001                                                     F               0         X-component position of node 40 (blade 2, node 11), m
        119    -4.82067604065E+001                                                     F               0         Y-component position of node 40 (blade 2, node 11), m
        120     1.89051406860E+002                                                     F               0         Z-component position of node 40 (blade 2, node 11), m
        121     1.95757789612E+001                                                     F               0         X-component position of node 41 (blade 2, node 12), m
        122    -5.09019851685E+001                                                     F               0         Y-component position of node 41 (blade 2, node 12), m
        123     1.91767547607E+002                                                     F               0         Z-component position of node 41 (blade 2, node 12), m
        124     2.01424884796E+001                                                     F               0         X-component position of node 42 (blade 2, node 13), m
        125    -5.35967330933E+001                                                     F               0         Y-component position of node 42 (blade 2, node 13), m
        126     1.94483200073E+002                                                     F               0         Z-component position of node 42 (blade 2, node 13), m
        127     2.07092018127E+001                                                     F               0         X-component position of node 43 (blade 2, node 14), m
        128    -5.62914733887E+001                                                     F               0         Y-component position of node 43 (blade 2, node 14), m
        129     1.97198852539E+002                                                     F               0         Z-component position of node 43 (blade 2, node 14), m
        130     2.12760143280E+001                                                     F               0         X-component position of node 44 (blade 2, node 15), m
        131    -5.89867095947E+001                                                     F               0         Y-component position of node 44 (blade 2, node 15), m
        132     1.99914993286E+002                                                     F               0         Z-component position of node 44 (blade 2, node 15), m
        133     2.18427238464E+001                                                     F               0         X-component position of node 45 (blade 2, node 16), m
        134    -6.16814537048E+001                                                     F               0         Y-component position of node 45 (blade 2, node 16), m
        135     2.02630630493E+002                                                     F               0         Z-component position of node 45 (blade 2, node 16), m
        136     2.24094352722E+001                                                     F               0         X-component position of node 46 (blade 2, node 17), m
        137    -6.43761978149E+001                                                     F               0         Y-component position of node 46 (blade 2, node 17), m
        138     2.05346282959E+002                                                     F               0         Z-component position of node 46 (blade 2, node 17), m
        139     2.29761466980E+001                                                     F               0         X-component position of node 47 (blade 2, node 18), m
        140    -6.70709381104E+001                                                     F               0         Y-component position of node 47 (blade 2, node 18), m
        141     2.08061935425E+002                                                     F               0         Z-component position of node 47 (blade 2, node 18), m
        142     2.35429630280E+001                                                     F               0         X-component position of node 48 (blade 2, node 19), m
        143    -6.97661666870E+001                                                     F               0         Y-component position of node 48 (blade 2, node 19), m
        144     2.10778076172E+002                                                     F               0         Z-component position of node 48 (blade 2, node 19), m
        145     2.41096744537E+001                                                     F               0         X-component position of node 49 (blade 2, node 20), m
        146    -7.24609146118E+001                                                     F               0         Y-component position of node 49 (blade 2, node 20), m
        147     2.13493728638E+002                                                     F               0         Z-component position of node 49 (blade 2, node 20), m
        148     2.46763896942E+001                                                     F               0         X-component position of node 50 (blade 2, node 21), m
        149    -7.51556549072E+001                                                     F               0         Y-component position of node 50 (blade 2, node 21), m
        150     2.16209381104E+002                                                     F               0         Z-component position of node 50 (blade 2, node 21), m
        151     2.52432022095E+001                                                     F               0         X-component position of node 51 (blade 2, node 22), m
        152    -7.78508911133E+001                                                     F               0         Y-component position of node 51 (blade 2, node 22), m
        153     2.18925521851E+002                                                     F               0         Z-component position of node 51 (blade 2, node 22), m
        154     2.58099117279E+001                                                     F               0         X-component position of node 52 (blade 2, node 23), m
        155    -8.05456390381E+001                                                     F               0         Y-component position of node 52 (blade 2, node 23), m
        156     2.21641159058E+002                                                     F               0         Z-component position of node 52 (blade 2, node 23), m
        157     2.63766231537E+001                                                     F               0         X-component position of node 53 (blade 2, node 24), m
        158    -8.32403793335E+001                                                     F               0         Y-component position of node 53 (blade 2, node 24), m
        159     2.24356811523E+002                                                     F               0         Z-component position of node 53 (blade 2, node 24), m
        160     2.69433345795E+001                                                     F               0         X-component position of node 54 (blade 2, node 25), m
        161    -8.59351196289E+001                                                     F               0         Y-component position of node 54 (blade 2, node 25), m
        162     2.27072463989E+002                                                     F               0         Z-component position of node 54 (blade 2, node 25), m
        163     2.75101470947E+001                                                     F               0         X-component position of node 55 (blade 2, node 26), m
        164    -8.86303634644E+001                                                     F               0         Y-component position of node 55 (blade 2, node 26), m
        165     2.29788604736E+002                                                     F               0         Z-component position of node 55 (blade 2, node 26), m
        166     2.80768604279E+001                                                     F               0         X-component position of node 56 (blade 2, node 27), m
        167    -9.13251037598E+001                                                     F               0         Y-component position of node 56 (blade 2, node 27), m
        168     2.32504257202E+002                                                     F               0         Z-component position of node 56 (blade 2, node 27), m
        169     2.85573101044E+001                                                     F               0         X-component position of node 57 (blade 2, node 28), m
        170    -9.36096572876E+001                                                     F               0         Y-component position of node 57 (blade 2, node 28), m
        171     2.34806533813E+002                                                     F               0         Z-component position of node 57 (blade 2, node 28), m
        172     9.71752643585E+000                                                     F               0         X-component position of node 58 (blade 3, node 1), m