
Linearized model: Predictions were generated on 13-Feb-2024 at 12:12:09 using OpenFAST, compiled as a 64-bit application using single precision at commit v3.5.1
 linked with  NWTC Subroutine Library; ElastoDyn; InflowWind; AeroDyn; ServoDyn; HydroDyn; MAP++ (<1.20.10>, <Oct-20-2023>)

Description from the FAST input file: CCT-9 Campign 4 model. Input files to be run with OpenFAST 3.5.0. GitHub branch from Lu Wang (https://github.com/luwang00/openfast/tree/dev) compiled on March 7, 2023.

Simulation information:
   Simulation time:                   776.8500 s
   Rotor Speed:                         0.7923 rad/s
   Azimuth:                             5.0797 rad
   Wind Speed:                         24.0000 m/s
   Number of continuous states:         0
   Number of discrete states:           0
   Number of constraint states:         0
   Number of inputs:                  303
   Number of outputs:                   1
   Jacobians included in this file?    No

Order of inputs:
     Column   Operating Point                                                   Rotating Frame? Derivative Order Description
   ---------- ---------------                                                   --------------- ---------------- -----------
          1    -1.08005075455E+001                                                     F               0         X-component position of node 1 (hub), m
          2     0.00000000000E+000                                                     F               0         Y-component position of node 1 (hub), m
          3     1.49740173340E+002                                                     F               0         Z-component position of node 1 (hub), m
          4     1.12716073990E+001                                                     F               0         X-component position of node 2 (blade 1, node 1), m
          5    -4.16111087799E+000                                                     F               0         Y-component position of node 2 (blade 1, node 1), m
          6     1.51988723755E+002                                                     F               0         Z-component position of node 2 (blade 1, node 1), m
          7     1.13845071793E+001                                                     F               0         X-component position of node 3 (blade 1, node 2), m
          8    -2.94524717331E+000                                                     F               0         Y-component position of node 3 (blade 1, node 2), m
          9     1.52528076172E+002                                                     F               0         Z-component position of node 3 (blade 1, node 2), m
         10     1.29197511673E+001                                                     F               0         X-component position of node 4 (blade 1, node 3), m
         11     1.35883903503E+001                                                     F               0         Y-component position of node 4 (blade 1, node 3), m
         12     1.59862365723E+002                                                     F               0         Z-component position of node 4 (blade 1, node 3), m
         13     1.32468452454E+001                                                     F               0         X-component position of node 5 (blade 1, node 4), m
         14     1.71109790802E+001                                                     F               0         Y-component position of node 5 (blade 1, node 4), m
         15     1.61424972534E+002                                                     F               0         Z-component position of node 5 (blade 1, node 4), m
         16     1.35739994049E+001                                                     F               0         X-component position of node 6 (blade 1, node 5), m
         17     2.06342391968E+001                                                     F               0         Y-component position of node 6 (blade 1, node 5), m
         18     1.62987884521E+002                                                     F               0         Z-component position of node 6 (blade 1, node 5), m
         19     1.39010944366E+001                                                     F               0         X-component position of node 7 (blade 1, node 6), m
         20     2.41568412781E+001                                                     F               0         Y-component position of node 7 (blade 1, node 6), m
         21     1.64550506592E+002                                                     F               0         Z-component position of node 7 (blade 1, node 6), m
         22     1.42281885147E+001                                                     F               0         X-component position of node 8 (blade 1, node 7), m
         23     2.76794567108E+001                                                     F               0         Y-component position of node 8 (blade 1, node 7), m
         24     1.66113128662E+002                                                     F               0         Z-component position of node 8 (blade 1, node 7), m
         25     1.45553426743E+001                                                     F               0         X-component position of node 9 (blade 1, node 8), m
         26     3.12027015686E+001                                                     F               0         Y-component position of node 9 (blade 1, node 8), m
         27     1.67676040649E+002                                                     F               0         Z-component position of node 9 (blade 1, node 8), m
         28     1.48824367523E+001                                                     F               0         X-component position of node 10 (blade 1, node 9), m
         29     3.47253189087E+001                                                     F               0         Y-component position of node 10 (blade 1, node 9), m
         30     1.69238662720E+002                                                     F               0         Z-component position of node 10 (blade 1, node 9), m
         31     1.52095317841E+001                                                     F               0         X-component position of node 11 (blade 1, node 10), m
         32     3.82479209900E+001                                                     F               0         Y-component position of node 11 (blade 1, node 10), m
         33     1.70801284790E+002                                                     F               0         Z-component position of node 11 (blade 1, node 10), m
         34     1.55366258621E+001                                                     F               0         X-component position of node 12 (blade 1, node 11), m
         35     4.17705383301E+001                                                     F               0         Y-component position of node 12 (blade 1, node 11), m
         36     1.72363906860E+002                                                     F               0         Z-component position of node 12 (blade 1, node 11), m
         37     1.58637809753E+001                                                     F               0         X-component position of node 13 (blade 1, node 12), m
         38     4.52937698364E+001                                                     F               0         Y-component position of node 13 (blade 1, node 12), m
         39     1.73926803589E+002                                                     F               0         Z-component position of node 13 (blade 1, node 12), m
         40     1.61908760071E+001                                                     F               0         X-component position of node 14 (blade 1, node 13), m
         41     4.88163871765E+001                                                     F               0         Y-component position of node 14 (blade 1, node 13), m
         42     1.75489425659E+002                                                     F               0         Z-component position of node 14 (blade 1, node 13), m
         43     1.65179710388E+001                                                     F               0         X-component position of node 15 (blade 1, node 14), m
         44     5.23389892578E+001                                                     F               0         Y-component position of node 15 (blade 1, node 14), m
         45     1.77052047729E+002                                                     F               0         Z-component position of node 15 (blade 1, node 14), m
         46     1.68451232910E+001                                                     F               0         X-component position of node 16 (blade 1, node 15), m
         47     5.58622436523E+001                                                     F               0         Y-component position of node 16 (blade 1, node 15), m
         48     1.78614959717E+002                                                     F               0         Z-component position of node 16 (blade 1, node 15), m
         49     1.71722183228E+001                                                     F               0         X-component position of node 17 (blade 1, node 16), m
         50     5.93848495483E+001                                                     F               0         Y-component position of node 17 (blade 1, node 16), m
         51     1.80177581787E+002                                                     F               0         Z-component position of node 17 (blade 1, node 16), m
         52     1.74993133545E+001                                                     F               0         X-component position of node 18 (blade 1, node 17), m
         53     6.29074707031E+001                                                     F               0         Y-component position of node 18 (blade 1, node 17), m
         54     1.81740203857E+002                                                     F               0         Z-component position of node 18 (blade 1, node 17), m
         55     1.78264083862E+001                                                     F               0         X-component position of node 19 (blade 1, node 18), m
         56     6.64300765991E+001                                                     F               0         Y-component position of node 19 (blade 1, node 18), m
         57     1.83302825928E+002                                                     F               0         Z-component position of node 19 (blade 1, node 18), m
         58     1.81535625458E+001                                                     F               0         X-component position of node 20 (blade 1, node 19), m
         59     6.99533081055E+001                                                     F               0         Y-component position of node 20 (blade 1, node 19), m
         60     1.84865722656E+002                                                     F               0         Z-component position of node 20 (blade 1, node 19), m
         61     1.84806556702E+001                                                     F               0         X-component position of node 21 (blade 1, node 20), m
         62     7.34759292603E+001                                                     F               0         Y-component position of node 21 (blade 1, node 20), m
         63     1.86428344727E+002                                                     F               0         Z-component position of node 21 (blade 1, node 20), m
         64     1.88077526093E+001                                                     F               0         X-component position of node 22 (blade 1, node 21), m
         65     7.69985351562E+001                                                     F               0         Y-component position of node 22 (blade 1, node 21), m
         66     1.87990966797E+002                                                     F               0         Z-component position of node 22 (blade 1, node 21), m
         67     1.91349048615E+001                                                     F               0         X-component position of node 23 (blade 1, node 22), m
         68     8.05217819214E+001                                                     F               0         Y-component position of node 23 (blade 1, node 22), m
         69     1.89553863525E+002                                                     F               0         Z-component position of node 23 (blade 1, node 22), m
         70     1.94619998932E+001                                                     F               0         X-component position of node 24 (blade 1, node 23), m
         71     8.40443954468E+001                                                     F               0         Y-component position of node 24 (blade 1, node 23), m
         72     1.91116500854E+002                                                     F               0         Z-component position of node 24 (blade 1, node 23), m
         73     1.97890949249E+001                                                     F               0         X-component position of node 25 (blade 1, node 24), m
         74     8.75670089722E+001                                                     F               0         Y-component position of node 25 (blade 1, node 24), m
         75     1.92679122925E+002                                                     F               0         Z-component position of node 25 (blade 1, node 24), m
         76     2.01161899567E+001                                                     F               0         X-component position of node 26 (blade 1, node 25), m
         77     9.10896072388E+001                                                     F               0         Y-component position of node 26 (blade 1, node 25), m
         78     1.94241729736E+002                                                     F               0         Z-component position of node 26 (blade 1, node 25), m
         79     2.04433441162E+001                                                     F               0         X-component position of node 27 (blade 1, node 26), m
         80     9.46128616333E+001                                                     F               0         Y-component position of node 27 (blade 1, node 26), m
         81     1.95804641724E+002                                                     F               0         Z-component position of node 27 (blade 1, node 26), m
         82     2.07704372406E+001                                                     F               0         X-component position of node 28 (blade 1, node 27), m
         83     9.81354598999E+001                                                     F               0         Y-component position of node 28 (blade 1, node 27), m
         84     1.97367263794E+002                                                     F               0         Z-component position of node 28 (blade 1, node 27), m
         85     2.10477428436E+001                                                     F               0         X-component position of node 29 (blade 1, node 28), m
         86     1.01121887207E+002                                                     F               0         Y-component position of node 29 (blade 1, node 28), m
         87     1.98692031860E+002                                                     F               0         Z-component position of node 29 (blade 1, node 28), m
         88     1.14615688324E+001                                                     F               0         X-component position of node 30 (blade 2, node 1), m
         89    -1.37105588913E+001                                                     F               0         Y-component position of node 30 (blade 2, node 1), m
         90     1.52908920288E+002                                                     F               0         Z-component position of node 30 (blade 2, node 1), m
         91     1.16202411652E+001                                                     F               0         X-component position of node 31 (blade 2, node 2), m
         92    -1.47956991196E+001                                                     F               0         Y-component position of node 31 (blade 2, node 2), m
         93     1.53669998169E+002                                                     F               0         Z-component position of node 31 (blade 2, node 2), m
         94     1.37779111862E+001                                                     F               0         X-component position of node 32 (blade 2, node 3), m
         95    -2.95518608093E+001                                                     F               0         Y-component position of node 32 (blade 2, node 3), m
         96     1.64019393921E+002                                                     F               0         Z-component position of node 32 (blade 2, node 3), m
         97     1.42376174927E+001                                                     F               0         X-component position of node 33 (blade 2, node 4), m
         98    -3.26957702637E+001                                                     F               0         Y-component position of node 33 (blade 2, node 4), m
         99     1.66224411011E+002                                                     F               0         Z-component position of node 33 (blade 2, node 4), m
        100     1.46974105835E+001                                                     F               0         X-component position of node 34 (blade 2, node 5), m
        101    -3.58402366638E+001                                                     F               0         Y-component position of node 34 (blade 2, node 5), m
        102     1.68429824829E+002                                                     F               0         Z-component position of node 34 (blade 2, node 5), m
        103     1.51571178436E+001                                                     F               0         X-component position of node 35 (blade 2, node 6), m
        104    -3.89841423035E+001                                                     F               0         Y-component position of node 35 (blade 2, node 6), m
        105     1.70634841919E+002                                                     F               0         Z-component position of node 35 (blade 2, node 6), m
        106     1.56168251038E+001                                                     F               0         X-component position of node 36 (blade 2, node 7), m
        107    -4.21280517578E+001                                                     F               0         Y-component position of node 36 (blade 2, node 7), m
        108     1.72839859009E+002                                                     F               0         Z-component position of node 36 (blade 2, node 7), m
        109     1.60766181946E+001                                                     F               0         X-component position of node 37 (blade 2, node 8), m
        110    -4.52725181580E+001                                                     F               0         Y-component position of node 37 (blade 2, node 8), m
        111     1.75045272827E+002                                                     F               0         Z-component position of node 37 (blade 2, node 8), m
        112     1.65363235474E+001                                                     F               0         X-component position of node 38 (blade 2, node 9), m
        113    -4.84164276123E+001                                                     F               0         Y-component position of node 38 (blade 2, node 9), m
        114     1.77250274658E+002                                                     F               0         Z-component position of node 38 (blade 2, node 9), m
        115     1.69960327148E+001                                                     F               0         X-component position of node 39 (blade 2, node 10), m
        116    -5.15603256226E+001                                                     F               0         Y-component position of node 39 (blade 2, node 10), m
        117     1.79455291748E+002                                                     F               0         Z-component position of node 39 (blade 2, node 10), m
        118     1.74557399750E+001                                                     F               0         X-component position of node 40 (blade 2, node 11), m
        119    -5.47042350769E+001                                                     F               0         Y-component position of node 40 (blade 2, node 11), m
        120     1.81660308838E+002                                                     F               0         Z-component position of node 40 (blade 2, node 11), m
        121     1.79155330658E+001                                                     F               0         X-component position of node 41 (blade 2, node 12), m
        122    -5.78487052917E+001                                                     F               0         Y-component position of node 41 (blade 2, node 12), m
        123     1.83865722656E+002                                                     F               0         Z-component position of node 41 (blade 2, node 12), m
        124     1.83752384186E+001                                                     F               0         X-component position of node 42 (blade 2, node 13), m
        125    -6.09926109314E+001                                                     F               0         Y-component position of node 42 (blade 2, node 13), m
        126     1.86070739746E+002                                                     F               0         Z-component position of node 42 (blade 2, node 13), m
        127     1.88349494934E+001                                                     F               0         X-component position of node 43 (blade 2, node 14), m
        128    -6.41365127563E+001                                                     F               0         Y-component position of node 43 (blade 2, node 14), m
        129     1.88275756836E+002                                                     F               0         Z-component position of node 43 (blade 2, node 14), m
        130     1.92947387695E+001                                                     F               0         X-component position of node 44 (blade 2, node 15), m
        131    -6.72809906006E+001                                                     F               0         Y-component position of node 44 (blade 2, node 15), m
        132     1.90481170654E+002                                                     F               0         Z-component position of node 44 (blade 2, node 15), m
        133     1.97544441223E+001                                                     F               0         X-component position of node 45 (blade 2, node 16), m
        134    -7.04248962402E+001                                                     F               0         Y-component position of node 45 (blade 2, node 16), m
        135     1.92686172485E+002                                                     F               0         Z-component position of node 45 (blade 2, node 16), m
        136     2.02141513824E+001                                                     F               0         X-component position of node 46 (blade 2, node 17), m
        137    -7.35688018799E+001                                                     F               0         Y-component position of node 46 (blade 2, node 17), m
        138     1.94891189575E+002                                                     F               0         Z-component position of node 46 (blade 2, node 17), m
        139     2.06738586426E+001                                                     F               0         X-component position of node 47 (blade 2, node 18), m
        140    -7.67126998901E+001                                                     F               0         Y-component position of node 47 (blade 2, node 18), m
        141     1.97096206665E+002                                                     F               0         Z-component position of node 47 (blade 2, node 18), m
        142     2.11336517334E+001                                                     F               0         X-component position of node 48 (blade 2, node 19), m
        143    -7.98571701050E+001                                                     F               0         Y-component position of node 48 (blade 2, node 19), m
        144     1.99301620483E+002                                                     F               0         Z-component position of node 48 (blade 2, node 19), m
        145     2.15933589935E+001                                                     F               0         X-component position of node 49 (blade 2, node 20), m
        146    -8.30010833740E+001                                                     F               0         Y-component position of node 49 (blade 2, node 20), m
        147     2.01506637573E+002                                                     F               0         Z-component position of node 49 (blade 2, node 20), m
        148     2.20530700684E+001                                                     F               0         X-component position of node 50 (blade 2, node 21), m
        149    -8.61449890137E+001                                                     F               0         Y-component position of node 50 (blade 2, node 21), m
        150     2.03711654663E+002                                                     F               0         Z-component position of node 50 (blade 2, node 21), m
        151     2.25128593445E+001                                                     F               0         X-component position of node 51 (blade 2, node 22), m
        152    -8.92894592285E+001                                                     F               0         Y-component position of node 51 (blade 2, node 22), m
        153     2.05917068481E+002                                                     F               0         Z-component position of node 51 (blade 2, node 22), m
        154     2.29725646973E+001                                                     F               0         X-component position of node 52 (blade 2, node 23), m
        155    -9.24333648682E+001                                                     F               0         Y-component position of node 52 (blade 2, node 23), m
        156     2.08122070312E+002                                                     F               0         Z-component position of node 52 (blade 2, node 23), m
        157     2.34322738647E+001                                                     F               0         X-component position of node 53 (blade 2, node 24), m
        158    -9.55772705078E+001                                                     F               0         Y-component position of node 53 (blade 2, node 24), m
        159     2.10327087402E+002                                                     F               0         Z-component position of node 53 (blade 2, node 24), m
        160     2.38919811249E+001                                                     F               0         X-component position of node 54 (blade 2, node 25), m
        161    -9.87211685181E+001                                                     F               0         Y-component position of node 54 (blade 2, node 25), m
        162     2.12532104492E+002                                                     F               0         Z-component position of node 54 (blade 2, node 25), m
        163     2.43517704010E+001                                                     F               0         X-component position of node 55 (blade 2, node 26), m
        164    -1.01865653992E+002                                                     F               0         Y-component position of node 55 (blade 2, node 26), m
        165     2.14737518311E+002                                                     F               0         Z-component position of node 55 (blade 2, node 26), m
        166     2.48114776611E+001                                                     F               0         X-component position of node 56 (blade 2, node 27), m
        167    -1.05009559631E+002                                                     F               0         Y-component position of node 56 (blade 2, node 27), m
        168     2.16942535400E+002                                                     F               0         Z-component position of node 56 (blade 2, node 27), m
        169     2.52012119293E+001                                                     F               0         X-component position of node 57 (blade 2, node 28), m
        170    -1.07674903870E+002                                                     F               0         Y-component position of node 57 (blade 2, node 28), m
        171     2.18811904907E+002                                                     F               0         Z-component position of node 57 (blade 2, node 28), m
        172     9.67600631714E+000                                                     F               0         X-component position of node 58 (blade 3, node 1), m