
Linearized model: Predictions were generated on 06-Feb-2024 at 08:44:08 using OpenFAST, compiled as a 64-bit application using single precision at commit v3.5.1
 linked with  NWTC Subroutine Library; ElastoDyn; InflowWind; AeroDyn; ServoDyn; HydroDyn; MAP++ (<1.20.10>, <Oct-20-2023>)

Description from the FAST input file: CCT-9 Campign 4 model. Input files to be run with OpenFAST 3.5.0. GitHub branch from Lu Wang (https://github.com/luwang00/openfast/tree/dev) compiled on March 7, 2023.

Simulation information:
   Simulation time:                  2503.2000 s
   Rotor Speed:                         0.8855 rad/s
   Azimuth:                             5.9851 rad
   Wind Speed:                         10.0000 m/s
   Number of continuous states:         0
   Number of discrete states:           0
   Number of constraint states:         0
   Number of inputs:                 1746
   Number of outputs:                   4
   Jacobians included in this file?    No

Order of inputs:
     Column   Operating Point                     Rotating Frame? Derivative Order Description
   ---------- ---------------                     --------------- ---------------- -----------
          1    1.391E+01                                 F               0         Tower X translation displacement, node 1, m
          2    6.856E-02                                 F               0         Tower Y translation displacement, node 1, m
          3   -1.837E-01                                 F               0         Tower Z translation displacement, node 1, m
          4    1.488E+01                                 F               0         Tower X translation displacement, node 2, m
          5    9.843E-02                                 F               0         Tower Y translation displacement, node 2, m
          6   -2.223E-01                                 F               0         Tower Z translation displacement, node 2, m
          7    1.588E+01                                 F               0         Tower X translation displacement, node 3, m
          8    1.289E-01                                 F               0         Tower Y translation displacement, node 3, m
          9   -2.624E-01                                 F               0         Tower Z translation displacement, node 3, m
         10    1.689E+01                                 F               0         Tower X translation displacement, node 4, m
         11    1.597E-01                                 F               0         Tower Y translation displacement, node 4, m
         12   -3.039E-01                                 F               0         Tower Z translation displacement, node 4, m
         13    1.791E+01                                 F               0         Tower X translation displacement, node 5, m
         14    1.910E-01                                 F               0         Tower Y translation displacement, node 5, m
         15   -3.463E-01                                 F               0         Tower Z translation displacement, node 5, m
         16    1.894E+01                                 F               0         Tower X translation displacement, node 6, m
         17    2.226E-01                                 F               0         Tower Y translation displacement, node 6, m
         18   -3.896E-01                                 F               0         Tower Z translation displacement, node 6, m
         19    1.998E+01                                 F               0         Tower X translation displacement, node 7, m
         20    2.544E-01                                 F               0         Tower Y translation displacement, node 7, m
         21   -4.335E-01                                 F               0         Tower Z translation displacement, node 7, m
         22    2.103E+01                                 F               0         Tower X translation displacement, node 8, m
         23    2.865E-01                                 F               0         Tower Y translation displacement, node 8, m
         24   -4.779E-01                                 F               0         Tower Z translation displacement, node 8, m
         25    2.208E+01                                 F               0         Tower X translation displacement, node 9, m
         26    3.187E-01                                 F               0         Tower Y translation displacement, node 9, m
         27   -5.226E-01                                 F               0         Tower Z translation displacement, node 9, m
         28    2.313E+01                                 F               0         Tower X translation displacement, node 10, m
         29    3.510E-01                                 F               0         Tower Y translation displacement, node 10, m
         30   -5.676E-01                                 F               0         Tower Z translation displacement, node 10, m
         31    2.418E+01                                 F               0         Tower X translation displacement, node 11, m
         32    3.835E-01                                 F               0         Tower Y translation displacement, node 11, m
         33   -6.126E-01                                 F               0         Tower Z translation displacement, node 11, m
         34    9.969E-01,  1.319E-03, -7.828E-02         F               0         Tower X orientation angle, node 1, rad
         35   -1.502E-03,  1.000E+00, -2.289E-03         F               0         Tower Y orientation angle, node 1, rad
         36    7.828E-02,  2.400E-03,  9.969E-01         F               0         Tower Z orientation angle, node 1, rad
         37    9.968E-01,  1.315E-03, -7.982E-02         F               0         Tower X orientation angle, node 2, rad
         38   -1.506E-03,  1.000E+00, -2.329E-03         F               0         Tower Y orientation angle, node 2, rad
         39    7.981E-02,  2.442E-03,  9.968E-01         F               0         Tower Z orientation angle, node 2, rad
         40    9.967E-01,  1.312E-03, -8.115E-02         F               0         Tower X orientation angle, node 3, rad
         41   -1.508E-03,  1.000E+00, -2.366E-03         F               0         Tower Y orientation angle, node 3, rad
         42    8.115E-02,  2.480E-03,  9.967E-01         F               0         Tower Z orientation angle, node 3, rad
         43    9.966E-01,  1.309E-03, -8.228E-02         F               0         Tower X orientation angle, node 4, rad
         44   -1.511E-03,  1.000E+00, -2.398E-03         F               0         Tower Y orientation angle, node 4, rad
         45    8.227E-02,  2.514E-03,  9.966E-01         F               0         Tower Z orientation angle, node 4, rad
         46    9.965E-01,  1.306E-03, -8.319E-02         F               0         Tower X orientation angle, node 5, rad
         47   -1.513E-03,  1.000E+00, -2.425E-03         F               0         Tower Y orientation angle, node 5, rad
         48    8.318E-02,  2.543E-03,  9.965E-01         F               0         Tower Z orientation angle, node 5, rad
         49    9.965E-01,  1.305E-03, -8.391E-02         F               0         Tower X orientation angle, node 6, rad
         50   -1.515E-03,  1.000E+00, -2.449E-03         F               0         Tower Y orientation angle, node 6, rad
         51    8.390E-02,  2.567E-03,  9.965E-01         F               0         Tower Z orientation angle, node 6, rad
         52    9.964E-01,  1.303E-03, -8.444E-02         F               0         Tower X orientation angle, node 7, rad
         53   -1.517E-03,  1.000E+00, -2.467E-03         F               0         Tower Y orientation angle, node 7, rad
         54    8.444E-02,  2.587E-03,  9.964E-01         F               0         Tower Z orientation angle, node 7, rad
         55    9.964E-01,  1.302E-03, -8.483E-02         F               0         Tower X orientation angle, node 8, rad
         56   -1.518E-03,  1.000E+00, -2.482E-03         F               0         Tower Y orientation angle, node 8, rad
         57    8.482E-02,  2.602E-03,  9.964E-01         F               0         Tower Z orientation angle, node 8, rad
         58    9.964E-01,  1.301E-03, -8.508E-02         F               0         Tower X orientation angle, node 9, rad
         59   -1.519E-03,  1.000E+00, -2.493E-03         F               0         Tower Y orientation angle, node 9, rad
         60    8.508E-02,  2.613E-03,  9.964E-01         F               0         Tower Z orientation angle, node 9, rad
         61    9.964E-01,  1.301E-03, -8.524E-02         F               0         Tower X orientation angle, node 10, rad
         62   -1.520E-03,  1.000E+00, -2.501E-03         F               0         Tower Y orientation angle, node 10, rad
         63    8.523E-02,  2.621E-03,  9.964E-01         F               0         Tower Z orientation angle, node 10, rad
         64    9.964E-01,  1.301E-03, -8.531E-02         F               0         Tower X orientation angle, node 11, rad
         65   -1.520E-03,  1.000E+00, -2.505E-03         F               0         Tower Y orientation angle, node 11, rad
         66    8.531E-02,  2.625E-03,  9.964E-01         F               0         Tower Z orientation angle, node 11, rad
         67   -2.498E-04                                 F               0         Tower X translation velocity, node 1, m/s
         68    7.305E-03                                 F               0         Tower Y translation velocity, node 1, m/s
         69    7.985E-04                                 F               0         Tower Z translation velocity, node 1, m/s
         70   -3.432E-04                                 F               0         Tower X translation velocity, node 2, m/s
         71    1.212E-02                                 F               0         Tower Y translation velocity, node 2, m/s
         72    7.942E-04                                 F               0         Tower Z translation velocity, node 2, m/s
         73   -3.797E-04                                 F               0         Tower X translation velocity, node 3, m/s
         74    1.705E-02                                 F               0         Tower Y translation velocity, node 3, m/s
         75    7.850E-04                                 F               0         Tower Z translation velocity, node 3, m/s
         76   -3.688E-04                                 F               0         Tower X translation velocity, node 4, m/s
         77    2.207E-02                                 F               0         Tower Y translation velocity, node 4, m/s
         78    7.715E-04                                 F               0         Tower Z translation velocity, node 4, m/s
         79   -3.147E-04                                 F               0         Tower X translation velocity, node 5, m/s
         80    2.718E-02                                 F               0         Tower Y translation velocity, node 5, m/s
         81    7.541E-04                                 F               0         Tower Z translation velocity, node 5, m/s
         82   -2.218E-04                                 F               0         Tower X translation velocity, node 6, m/s
         83    3.235E-02                                 F               0         Tower Y translation velocity, node 6, m/s
         84    7.330E-04                                 F               0         Tower Z translation velocity, node 6, m/s
         85   -9.743E-05                                 F               0         Tower X translation velocity, node 7, m/s
         86    3.757E-02                                 F               0         Tower Y translation velocity, node 7, m/s
         87    7.090E-04                                 F               0         Tower Z translation velocity, node 7, m/s
         88    5.622E-05                                 F               0         Tower X translation velocity, node 8, m/s
         89    4.284E-02                                 F               0         Tower Y translation velocity, node 8, m/s
         90    6.822E-04                                 F               0         Tower Z translation velocity, node 8, m/s
         91    2.334E-04                                 F               0         Tower X translation velocity, node 9, m/s
         92    4.815E-02                                 F               0         Tower Y translation velocity, node 9, m/s
         93    6.532E-04                                 F               0         Tower Z translation velocity, node 9, m/s
         94    4.280E-04                                 F               0         Tower X translation velocity, node 10, m/s
         95    5.347E-02                                 F               0         Tower Y translation velocity, node 10, m/s
         96    6.226E-04                                 F               0         Tower Z translation velocity, node 10, m/s
         97    6.335E-04                                 F               0         Tower X translation velocity, node 11, m/s
         98    5.882E-02                                 F               0         Tower Y translation velocity, node 11, m/s
         99    5.909E-04                                 F               0         Tower Z translation velocity, node 11, m/s
        100    2.489E+01                                 F               0         Hub X translation displacement, node 1, m
        101    3.900E-01                                 F               0         Hub Y translation displacement, node 1, m
        102    2.802E-01                                 F               0         Hub Z translation displacement, node 1, m
        103    9.820E-01,  1.019E-03, -1.890E-01         F               0         Hub X orientation angle, node 1, rad
        104   -5.695E-02,  9.551E-01, -2.908E-01         F               0         Hub Y orientation angle, node 1, rad
        105    1.802E-01,  2.963E-01,  9.379E-01         F               0         Hub Z orientation angle, node 1, rad
        106    8.691E-01                                 F               0         Hub X rotation velocity, node 1, rad/s
        107    9.197E-04                                 F               0         Hub Y rotation velocity, node 1, rad/s
        108   -1.673E-01                                 F               0         Hub Z rotation velocity, node 1, rad/s
        109    9.832E-01, -2.732E-02, -1.803E-01         F               0         Blade root 1 X orientation angle, node 1, rad
        110   -2.779E-02,  9.547E-01, -2.962E-01         F               0         Blade root 1 Y orientation angle, node 1, rad
        111    1.802E-01,  2.963E-01,  9.379E-01         F               0         Blade root 1 Z orientation angle, node 1, rad
        112    9.761E-01,  7.574E-03, -2.173E-01         F               0         Blade root 2 X orientation angle, node 1, rad
        113    2.136E-01, -2.208E-01,  9.516E-01         F               0         Blade root 2 Y orientation angle, node 1, rad
        114   -4.078E-02, -9.753E-01, -2.172E-01         F               0         Blade root 2 Z orientation angle, node 1, rad
        115    9.853E-01,  2.280E-02, -1.691E-01         F               0         Blade root 3 X orientation angle, node 1, rad
        116   -9.840E-02, -7.338E-01, -6.722E-01         F               0         Blade root 3 Y orientation angle, node 1, rad
        117   -1.394E-01,  6.790E-01, -7.208E-01         F               0         Blade root 3 Z orientation angle, node 1, rad
        118    2.531E+01                                 F               0         Blade 1 X translation displacement, node 1, m
        119    2.031E+00                                 F               0         Blade 1 Y translation displacement, node 1, m
        120   -3.328E-02                                 F               0         Blade 1 Z translation displacement, node 1, m
        121    2.541E+01                                 F               0         Blade 1 X translation displacement, node 2, m
        122    2.427E+00                                 F               0         Blade 1 Y translation displacement, node 2, m
        123   -1.088E-01                                 F               0         Blade 1 Z translation displacement, node 2, m
        124    2.679E+01                                 F               0         Blade 1 X translation displacement, node 3, m
        125    7.805E+00                                 F               0         Blade 1 Y translation displacement, node 3, m
        126   -1.136E+00                                 F               0         Blade 1 Z translation displacement, node 3, m
        127    2.708E+01                                 F               0         Blade 1 X translation displacement, node 4, m
        128    8.951E+00                                 F               0         Blade 1 Y translation displacement, node 4, m
        129   -1.355E+00                                 F               0         Blade 1 Z translation displacement, node 4, m
        130    2.737E+01                                 F               0         Blade 1 X translation displacement, node 5, m
        131    1.010E+01                                 F               0         Blade 1 Y translation displacement, node 5, m
        132   -1.573E+00                                 F               0         Blade 1 Z translation displacement, node 5, m
        133    2.767E+01                                 F               0         Blade 1 X translation displacement, node 6, m
        134    1.124E+01                                 F               0         Blade 1 Y translation displacement, node 6, m
        135   -1.792E+00                                 F               0         Blade 1 Z translation displacement, node 6, m
        136    2.796E+01                                 F               0         Blade 1 X translation displacement, node 7, m
        137    1.239E+01                                 F               0         Blade 1 Y translation displacement, node 7, m
        138   -2.011E+00                                 F               0         Blade 1 Z translation displacement, node 7, m
        139    2.825E+01                                 F               0         Blade 1 X translation displacement, node 8, m
        140    1.354E+01                                 F               0         Blade 1 Y translation displacement, node 8, m
        141   -2.230E+00                                 F               0         Blade 1 Z translation displacement, node 8, m
        142    2.854E+01                                 F               0         Blade 1 X translation displacement, node 9, m
        143    1.468E+01                                 F               0         Blade 1 Y translation displacement, node 9, m
        144   -2.449E+00                                 F               0         Blade 1 Z translation displacement, node 9, m
        145    2.884E+01                                 F               0         Blade 1 X translation displacement, node 10, m
        146    1.583E+01                                 F               0         Blade 1 Y translation displacement, node 10, m
        147   -2.668E+00                                 F               0         Blade 1 Z translation displacement, node 10, m
        148    2.913E+01                                 F               0         Blade 1 X translation displacement, node 11, m
        149    1.697E+01                                 F               0         Blade 1 Y translation displacement, node 11, m
        150   -2.886E+00                                 F               0         Blade 1 Z translation displacement, node 11, m
        151    2.942E+01                                 F               0         Blade 1 X translation displacement, node 12, m
        152    1.812E+01                                 F               0         Blade 1 Y translation displacement, node 12, m
        153   -3.105E+00                                 F               0         Blade 1 Z translation displacement, node 12, m
        154    2.971E+01                                 F               0         Blade 1 X translation displacement, node 13, m
        155    1.926E+01                                 F               0         Blade 1 Y translation displacement, node 13, m
        156   -3.324E+00                                 F               0         Blade 1 Z translation displacement, node 13, m
        157    3.001E+01                                 F               0         Blade 1 X translation displacement, node 14, m
        158    2.041E+01                                 F               0         Blade 1 Y translation displacement, node 14, m
        159   -3.543E+00                                 F               0         Blade 1 Z translation displacement, node 14, m
        160    3.030E+01                                 F               0         Blade 1 X translation displacement, node 15, m
        161    2.156E+01                                 F               0         Blade 1 Y translation displacement, node 15, m
        162   -3.762E+00                                 F               0         Blade 1 Z translation displacement, node 15, m
        163    3.059E+01                                 F               0         Blade 1 X translation displacement, node 16, m
        164    2.270E+01                                 F               0         Blade 1 Y translation displacement, node 16, m
        165   -3.981E+00                                 F               0         Blade 1 Z translation displacement, node 16, m
        166    3.089E+01                                 F               0         Blade 1 X translation displacement, node 17, m
        167    2.385E+01                                 F               0         Blade 1 Y translation displacement, node 17, m
        168   -4.199E+00                                 F               0         Blade 1 Z translation displacement, node 17, m
        169    3.118E+01                                 F               0         Blade 1 X translation displacement, node 18, m
        170    2.499E+01                                 F               0         Blade 1 Y translation displacement, node 18, m
        171   -4.418E+00                                 F               0         Blade 1 Z translation displacement, node 18, m
        172    3.147E+01                                 F               0         Blade 1 X translation displacement, node 19, m
        173    2.614E+01                                 F               0         Blade 1 Y translation displacement, node 19, m
        174   -4.637E+00                                 F               0         Blade 1 Z translation displacement, node 19, m
        175    3.176E+01                                 F               0         Blade 1 X translation displacement, node 20, m
        176    2.729E+01                                 F               0         Blade 1 Y translation displacement, node 20, m
        177   -4.856E+00                                 F               0         Blade 1 Z translation displacement, node 20, m
        178    3.206E+01                                 F               0         Blade 1 X translation displacement, node 21, m
        179    2.843E+01                                 F               0         Blade 1 Y translation displacement, node 21, m
        180   -5.075E+00                                 F               0         Blade 1 Z translation displacement, node 21, m
        181    3.235E+01                                 F               0         Blade 1 X translation displacement, node 22, m
        182    2.958E+01                                 F               0         Blade 1 Y translation displacement, node 22, m
        183   -5.293E+00                                 F               0         Blade 1 Z translation displacement, node 22, m
        184    3.264E+01                                 F               0         Blade 1 X translation displacement, node 23, m
        185    3.072E+01                                 F               0         Blade 1 Y translation displacement, node 23, m
        186   -5.512E+00                                 F               0         Blade 1 Z translation displacement, node 23, m
        187    3.293E+01                                 F               0         Blade 1 X translation displacement, node 24, m
        188    3.187E+01                                 F               0         Blade 1 Y translation displacement, node 24, m
        189   -5.731E+00                                 F               0         Blade 1 Z translation displacement, node 24, m
        190    3.323E+01                                 F               0         Blade 1 X translation displacement, node 25, m
        191    3.302E+01                                 F               0         Blade 1 Y translation displacement, node 25, m
        192   -5.950E+00                                 F               0         Blade 1 Z translation displacement, node 25, m
        193    3.352E+01                                 F               0         Blade 1 X translation displacement, node 26, m
        194    3.416E+01                                 F               0         Blade 1 Y translation displacement, node 26, m
        195   -6.169E+00                                 F               0         Blade 1 Z translation displacement, node 26, m
        196    3.381E+01                                 F               0         Blade 1 X translation displacement, node 27, m
        197    3.531E+01                                 F               0         Blade 1 Y translation displacement, node 27, m
        198   -6.388E+00                                 F               0         Blade 1 Z translation displacement, node 27, m
        199    3.406E+01                                 F               0         Blade 1 X translation displacement, node 28, m
        200    3.628E+01                                 F               0         Blade 1 Y translation displacement, node 28, m
        201   -6.573E+00                                 F               0         Blade 1 Z translation displacement, node 28, m
        202    8.877E-01, -4.597E-01, -2.536E-02         F               0         Blade 1 X orientation angle, node 1, rad
        203    4.236E-01,  8.372E-01, -3.459E-01         F               0         Blade 1 Y orientation angle, node 1, rad
        204    1.802E-01,  2.963E-01,  9.379E-01         F               0         Blade 1 Z orientation angle, node 1, rad
        205    8.877E-01, -4.597E-01, -2.536E-02         F               0         Blade 1 X orientation angle, node 2, rad
        206    4.236E-01,  8.372E-01, -3.459E-01         F               0         Blade 1 Y orientation angle, node 2, rad
        207    1.802E-01,  2.963E-01,  9.379E-01         F               0         Blade 1 Z orientation angle, node 2, rad
        208    9.628E-01, -2.481E-01, -1.066E-01         F               0         Blade 1 X orientation angle, node 3, rad
        209    2.012E-01,  9.223E-01, -3.300E-01         F               0         Blade 1 Y orientation angle, node 3, rad
        210    1.802E-01,  2.963E-01,  9.379E-01         F               0         Blade 1 Z orientation angle, node 3, rad
        211    9.705E-01, -2.090E-01, -1.204E-01         F               0         Blade 1 X orientation angle, node 4, rad
        212    1.603E-01,  9.320E-01, -3.252E-01         F               0         Blade 1 Y orientation angle, node 4, rad
        213    1.802E-01,  2.963E-01,  9.379E-01         F               0         Blade 1 Z orientation angle, node 4, rad
        214    9.753E-01, -1.780E-01, -1.312E-01         F               0         Blade 1 X orientation angle, node 5, rad
        215    1.281E-01,  9.384E-01, -3.210E-01         F               0         Blade 1 Y orientation angle, node 5, rad
        216    1.802E-01,  2.963E-01,  9.379E-01         F               0         Blade 1 Z orientation angle, node 5, rad
        217    9.783E-01, -1.530E-01, -1.396E-01         F               0         Blade 1 X orientation angle, node 6, rad
        218    1.021E-01,  9.428E-01, -3.174E-01         F               0         Blade 1 Y orientation angle, node 6, rad
        219    1.802E-01,  2.963E-01,  9.379E-01         F               0         Blade 1 Z orientation angle, node 6, rad
        220    9.803E-01, -1.324E-01, -1.465E-01         F               0         Blade 1 X orientation angle, node 7, rad
        221    8.078E-02,  9.459E-01, -3.143E-01         F               0         Blade 1 Y orientation angle, node 7, rad
        222    1.802E-01,  2.963E-01,  9.379E-01         F               0         Blade 1 Z orientation angle, node 7, rad
        223    9.816E-01, -1.152E-01, -1.522E-01         F               0         Blade 1 X orientation angle, node 8, rad
        224    6.298E-02,  9.481E-01, -3.116E-01         F               0         Blade 1 Y orientation angle, node 8, rad
        225    1.802E-01,  2.963E-01,  9.379E-01         F               0         Blade 1 Z orientation angle, node 8, rad
        226    9.825E-01, -1.006E-01, -1.570E-01         F               0         Blade 1 X orientation angle, node 9, rad
        227    4.789E-02,  9.498E-01, -3.092E-01         F               0         Blade 1 Y orientation angle, node 9, rad