
Linearized model: Predictions were generated on 13-Feb-2024 at 12:12:09 using OpenFAST, compiled as a 64-bit application using single precision at commit v3.5.1
 linked with  NWTC Subroutine Library; ElastoDyn; InflowWind; AeroDyn; ServoDyn; HydroDyn; MAP++ (<1.20.10>, <Oct-20-2023>)

Description from the FAST input file: CCT-9 Campign 4 model. Input files to be run with OpenFAST 3.5.0. GitHub branch from Lu Wang (https://github.com/luwang00/openfast/tree/dev) compiled on March 7, 2023.

Simulation information:
   Simulation time:                   774.2000 s
   Rotor Speed:                         0.7924 rad/s
   Azimuth:                             2.9809 rad
   Wind Speed:                         24.0000 m/s
   Number of continuous states:         0
   Number of discrete states:           0
   Number of constraint states:         0
   Number of inputs:                 1746
   Number of outputs:                   4
   Jacobians included in this file?    No

Order of inputs:
     Column   Operating Point                                                   Rotating Frame? Derivative Order Description
   ---------- ---------------                                                   --------------- ---------------- -----------
          1     8.55401134491E+000                                                     F               0         Tower X translation displacement, node 1, m
          2    -1.82688784599E+000                                                     F               0         Tower Y translation displacement, node 1, m
          3    -2.15737894177E-001                                                     F               0         Tower Z translation displacement, node 1, m
          4     9.72744941711E+000                                                     F               0         Tower X translation displacement, node 2, m
          5    -2.50360894203E+000                                                     F               0         Tower Y translation displacement, node 2, m
          6    -2.90223419666E-001                                                     F               0         Tower Z translation displacement, node 2, m
          7     1.09192209244E+001                                                     F               0         Tower X translation displacement, node 3, m
          8    -3.18782234192E+000                                                     F               0         Tower Y translation displacement, node 3, m
          9    -3.66885691881E-001                                                     F               0         Tower Z translation displacement, node 3, m
         10     1.21247253418E+001                                                     F               0         Tower X translation displacement, node 4, m
         11    -3.87820458412E+000                                                     F               0         Tower Y translation displacement, node 4, m
         12    -4.45234060287E-001                                                     F               0         Tower Z translation displacement, node 4, m
         13     1.33414020538E+001                                                     F               0         Tower X translation displacement, node 5, m
         14    -4.57416534424E+000                                                     F               0         Tower Y translation displacement, node 5, m
         15    -5.24996519089E-001                                                     F               0         Tower Z translation displacement, node 5, m
         16     1.45668573380E+001                                                     F               0         Tower X translation displacement, node 6, m
         17    -5.27508020401E+000                                                     F               0         Tower Y translation displacement, node 6, m
         18    -6.05924963951E-001                                                     F               0         Tower Z translation displacement, node 6, m
         19     1.57985143661E+001                                                     F               0         Tower X translation displacement, node 7, m
         20    -5.97997426987E+000                                                     F               0         Tower Y translation displacement, node 7, m
         21    -6.87687754631E-001                                                     F               0         Tower Z translation displacement, node 7, m
         22     1.70351543427E+001                                                     F               0         Tower X translation displacement, node 8, m
         23    -6.68853378296E+000                                                     F               0         Tower Y translation displacement, node 8, m
         24    -7.70174920559E-001                                                     F               0         Tower Z translation displacement, node 8, m
         25     1.82751712799E+001                                                     F               0         Tower X translation displacement, node 9, m
         26    -7.40000200272E+000                                                     F               0         Tower Y translation displacement, node 9, m
         27    -8.53161633015E-001                                                     F               0         Tower Z translation displacement, node 9, m
         28     1.95172500610E+001                                                     F               0         Tower X translation displacement, node 10, m
         29    -8.11357498169E+000                                                     F               0         Tower Y translation displacement, node 10, m
         30    -9.36485528946E-001                                                     F               0         Tower Z translation displacement, node 10, m
         31     2.07603511810E+001                                                     F               0         Tower X translation displacement, node 11, m
         32    -8.82846450806E+000                                                     F               0         Tower Y translation displacement, node 11, m
         33    -1.01998639107E+000                                                     F               0         Tower Z translation displacement, node 11, m
         34     9.95465934277E-001,  -6.68964348733E-003,  -9.48835164309E-002         F               0         Tower X orientation angle, node 1, rad
         35     1.18248444051E-002,   9.98489081860E-001,   5.36625683308E-002         F               0         Tower Y orientation angle, node 1, rad
         36     9.43811759353E-002,  -5.45412413776E-002,   9.94040966034E-001         F               0         Tower Z orientation angle, node 1, rad
         37     9.95331346989E-001,  -6.61206711084E-003,  -9.62900370359E-002         F               0         Tower X orientation angle, node 2, rad
         38     1.18772881106E-002,   9.98458862305E-001,   5.42107969522E-002         F               0         Tower Y orientation angle, node 2, rad
         39     9.57831963897E-002,  -5.51013723016E-002,   9.93875980377E-001         F               0         Tower Z orientation angle, node 2, rad
         40     9.95213031769E-001,  -6.54409499839E-003,  -9.75097864866E-002         F               0         Tower X orientation angle, node 3, rad
         41     1.19266584516E-002,   9.98430490494E-001,   5.47200664878E-002         F               0         Tower Y orientation angle, node 3, rad
         42     9.69986543059E-002,  -5.56210912764E-002,   9.93729114532E-001         F               0         Tower Z orientation angle, node 3, rad
         43     9.95113551617E-001,  -6.48701377213E-003,  -9.85238626599E-002         F               0         Tower X orientation angle, node 4, rad
         44     1.19722383097E-002,   9.98404324055E-001,   5.51853403449E-002         F               0         Tower Y orientation angle, node 4, rad
         45     9.80086699128E-002,  -5.60952313244E-002,   9.93603348732E-001         F               0         Tower Z orientation angle, node 4, rad
         46     9.95032548904E-001,  -6.44052121788E-003,  -9.93417054415E-002         F               0         Tower X orientation angle, node 5, rad
         47     1.20136355981E-002,   9.98380601406E-001,   5.56047149003E-002         F               0         Tower Y orientation angle, node 5, rad
         48     9.88227054477E-002,  -5.65219558775E-002,   9.93498563766E-001         F               0         Tower Z orientation angle, node 5, rad
         49     9.94969010353E-001,  -6.40396447852E-003,  -9.99784246087E-002         F               0         Tower X orientation angle, node 6, rad
         50     1.20503939688E-002,   9.98359441757E-001,   5.59751801193E-002         F               0         Tower Y orientation angle, node 6, rad
         51     9.94559377432E-002,  -5.68983480334E-002,   9.93413865566E-001         F               0         Tower Z orientation angle, node 6, rad
         52     9.94922518730E-001,  -6.37708930299E-003,  -1.00441694260E-001         F               0         Tower X orientation angle, node 7, rad
         53     1.20815560222E-002,   9.98341441154E-001,   5.62883727252E-002         F               0         Tower Y orientation angle, node 7, rad
         54     9.99161526561E-002,  -5.72160594165E-002,   9.93349432945E-001         F               0         Tower Z orientation angle, node 7, rad
         55     9.94889557362E-001,  -6.35792128742E-003,  -1.00768752396E-001         F               0         Tower X orientation angle, node 8, rad
         56     1.21070751920E-002,   9.98326659203E-001,   5.65445162356E-002         F               0         Tower Y orientation angle, node 8, rad
         57     1.00240632892E-001,  -5.74755631387E-002,   9.93301749229E-001         F               0         Tower Z orientation angle, node 8, rad
         58     9.94867920876E-001,  -6.34524598718E-003,  -1.00982762873E-001         F               0         Tower X orientation angle, node 9, rad
         59     1.21265565977E-002,   9.98315334320E-001,   5.67400418222E-002         F               0         Tower Y orientation angle, node 9, rad
         60     1.00452616811E-001,  -5.76734244823E-002,   9.93268847466E-001         F               0         Tower Z orientation angle, node 9, rad
         61     9.94855463505E-001,  -6.33785594255E-003,  -1.01106174290E-001         F               0         Tower X orientation angle, node 10, rad
         62     1.21397050098E-002,   9.98307645321E-001,   5.68721145391E-002         F               0         Tower Y orientation angle, node 10, rad
         63     1.00574620068E-001,  -5.78069314361E-002,   9.93248760700E-001         F               0         Tower Z orientation angle, node 10, rad
         64     9.94849503040E-001,  -6.33430574089E-003,  -1.01164765656E-001         F               0         Tower X orientation angle, node 11, rad
         65     1.21470410377E-002,   9.98303353786E-001,   5.69459013641E-002         F               0         Tower Y orientation angle, node 11, rad
         66     1.00632414222E-001,  -5.78814558685E-002,   9.93238568306E-001         F               0         Tower Z orientation angle, node 11, rad
         67     8.93967784941E-003                                                     F               0         Tower X translation velocity, node 1, m/s
         68    -7.92376114987E-004                                                     F               0         Tower Y translation velocity, node 1, m/s
         69    -2.87589663640E-003                                                     F               0         Tower Z translation velocity, node 1, m/s
         70     1.13268783316E-002                                                     F               0         Tower X translation velocity, node 2, m/s
         71    -1.22565659694E-003                                                     F               0         Tower Y translation velocity, node 2, m/s
         72    -3.12757771462E-003                                                     F               0         Tower Z translation velocity, node 2, m/s
         73     1.19493594393E-002                                                     F               0         Tower X translation velocity, node 3, m/s
         74    -1.31100846920E-003                                                     F               0         Tower Y translation velocity, node 3, m/s
         75    -3.19275888614E-003                                                     F               0         Tower Z translation velocity, node 3, m/s
         76     1.11913597211E-002                                                     F               0         Tower X translation velocity, node 4, m/s
         77    -1.11471384298E-003                                                     F               0         Tower Y translation velocity, node 4, m/s
         78    -3.10731050558E-003                                                     F               0         Tower Z translation velocity, node 4, m/s
         79     9.25134774297E-003                                                     F               0         Tower X translation velocity, node 5, m/s
         80    -6.68078195304E-004                                                     F               0         Tower Y translation velocity, node 5, m/s
         81    -2.88973073475E-003                                                     F               0         Tower Z translation velocity, node 5, m/s
         82     6.32183812559E-003                                                     F               0         Tower X translation velocity, node 6, m/s
         83    -3.02442572320E-006                                                     F               0         Tower Y translation velocity, node 6, m/s
         84    -2.55930400454E-003                                                     F               0         Tower Z translation velocity, node 6, m/s
         85     2.64248671010E-003                                                     F               0         Tower X translation velocity, node 7, m/s
         86     8.34537495393E-004                                                     F               0         Tower Y translation velocity, node 7, m/s
         87    -2.14203866199E-003                                                     F               0         Tower Z translation velocity, node 7, m/s
         88    -1.69018353336E-003                                                     F               0         Tower X translation velocity, node 8, m/s
         89     1.82868272532E-003                                                     F               0         Tower Y translation velocity, node 8, m/s
         90    -1.64817203768E-003                                                     F               0         Tower Z translation velocity, node 8, m/s
         91    -6.51158066466E-003                                                     F               0         Tower X translation velocity, node 9, m/s
         92     2.94515141286E-003                                                     F               0         Tower Y translation velocity, node 9, m/s
         93    -1.09639507718E-003                                                     F               0         Tower Z translation velocity, node 9, m/s
         94    -1.16690695286E-002                                                     F               0         Tower X translation velocity, node 10, m/s
         95     4.14913520217E-003                                                     F               0         Tower Y translation velocity, node 10, m/s
         96    -5.04489871673E-004                                                     F               0         Tower Z translation velocity, node 10, m/s
         97    -1.70234795660E-002                                                     F               0         Tower X translation velocity, node 11, m/s
         98     5.40747772902E-003                                                     F               0         Tower Y translation velocity, node 11, m/s
         99     1.11105779069E-004                                                     F               0         Tower Z translation velocity, node 11, m/s
        100     2.16059608459E+001                                                     F               0         Hub X translation displacement, node 1, m
        101    -9.21443080902E+000                                                     F               0         Hub Y translation displacement, node 1, m
        102     1.95712633431E-002                                                     F               0         Hub Z translation displacement, node 1, m
        103     9.78880703449E-001,  -2.49346281635E-004,  -2.04432278872E-001         F               0         Hub X orientation angle, node 1, rad
        104     2.06587072462E-002,  -9.94759559631E-001,   1.00133150816E-001         F               0         Hub Y orientation angle, node 1, rad
        105    -2.03385934234E-001,  -1.02241717279E-001,  -9.73745763302E-001         F               0         Hub Z orientation angle, node 1, rad
        106     7.75573253632E-001                                                     F               0         Hub X rotation velocity, node 1, rad/s
        107    -6.37378660031E-004                                                     F               0         Hub Y rotation velocity, node 1, rad/s
        108    -1.61993339658E-001                                                     F               0         Hub Z rotation velocity, node 1, rad/s
        109     9.30641531944E-001,   2.88812696934E-001,  -2.24707633257E-001         F               0         Blade root 1 X orientation angle, node 1, rad
        110     3.04204642773E-001,  -9.51910614967E-001,   3.64099480212E-002         F               0         Blade root 1 Y orientation angle, node 1, rad
        111    -2.03385934234E-001,  -1.02241717279E-001,  -9.73745763302E-001         F               0         Blade root 1 Z orientation angle, node 1, rad
        112     9.90826845169E-001,  -1.19035668671E-001,   6.39742538333E-002         F               0         Blade root 2 X orientation angle, node 1, rad
        113     1.06016129255E-001,   3.91123175621E-001,  -9.14211809635E-001         F               0         Blade root 2 Y orientation angle, node 1, rad
        114     8.38019996881E-002,   9.12607908249E-001,   4.00155037642E-001         F               0         Blade root 2 Z orientation angle, node 1, rad
        115     8.88464927673E-001,  -1.70492798090E-001,  -4.26101237535E-001         F               0         Blade root 3 X orientation angle, node 1, rad
        116     4.43091124296E-001,   5.60570120811E-001,   6.99593722820E-001         F               0         Blade root 3 Y orientation angle, node 1, rad
        117     1.19583927095E-001,  -8.10366213322E-001,   5.73590755463E-001         F               0         Blade root 3 Z orientation angle, node 1, rad
        118     1.99001140594E+001                                                     F               0         Blade 1 X translation displacement, node 1, m
        119    -9.78084945679E+000                                                     F               0         Blade 1 Y translation displacement, node 1, m
        120    -1.08846387863E+001                                                     F               0         Blade 1 Z translation displacement, node 1, m
        121     1.94890785217E+001                                                     F               0         Blade 1 X translation displacement, node 2, m
        122    -9.91733264923E+000                                                     F               0         Blade 1 Y translation displacement, node 2, m
        123    -1.35120887756E+001                                                     F               0         Blade 1 Z translation displacement, node 2, m
        124     1.38996906281E+001                                                     F               0         Blade 1 X translation displacement, node 3, m
        125    -1.17732658386E+001                                                     F               0         Blade 1 Y translation displacement, node 3, m
        126    -4.92408828735E+001                                                     F               0         Blade 1 Z translation displacement, node 3, m
        127     1.27088384628E+001                                                     F               0         Blade 1 X translation displacement, node 4, m
        128    -1.21686830521E+001                                                     F               0         Blade 1 Y translation displacement, node 4, m
        129    -5.68531188965E+001                                                     F               0         Blade 1 Z translation displacement, node 4, m
        130     1.15177602768E+001                                                     F               0         Blade 1 X translation displacement, node 5, m
        131    -1.25641765594E+001                                                     F               0         Blade 1 Y translation displacement, node 5, m
        132    -6.44667892456E+001                                                     F               0         Blade 1 Z translation displacement, node 5, m
        133     1.03269033432E+001                                                     F               0         Blade 1 X translation displacement, node 6, m
        134    -1.29595947266E+001                                                     F               0         Blade 1 Y translation displacement, node 6, m
        135    -7.20790557861E+001                                                     F               0         Blade 1 Z translation displacement, node 6, m
        136     9.13604259491E+000                                                     F               0         Blade 1 X translation displacement, node 7, m
        137    -1.33550157547E+001                                                     F               0         Blade 1 Y translation displacement, node 7, m
        138    -7.96913375854E+001                                                     F               0         Blade 1 Z translation displacement, node 7, m
        139     7.94496870041E+000                                                     F               0         Blade 1 X translation displacement, node 8, m
        140    -1.37505064011E+001                                                     F               0         Blade 1 Y translation displacement, node 8, m
        141    -8.73050003052E+001                                                     F               0         Blade 1 Z translation displacement, node 8, m
        142     6.75410747528E+000                                                     F               0         Blade 1 X translation displacement, node 9, m
        143    -1.41459274292E+001                                                     F               0         Blade 1 Y translation displacement, node 9, m
        144    -9.49172744751E+001                                                     F               0         Blade 1 Z translation displacement, node 9, m
        145     5.56325101852E+000                                                     F               0         Blade 1 X translation displacement, node 10, m
        146    -1.45413465500E+001                                                     F               0         Blade 1 Y translation displacement, node 10, m
        147    -1.02529548645E+002                                                     F               0         Blade 1 Z translation displacement, node 10, m
        148     4.37238931656E+000                                                     F               0         Blade 1 X translation displacement, node 11, m
        149    -1.49367675781E+001                                                     F               0         Blade 1 Y translation displacement, node 11, m
        150    -1.10141830444E+002                                                     F               0         Blade 1 Z translation displacement, node 11, m
        151     3.18132019043E+000                                                     F               0         Blade 1 X translation displacement, node 12, m
        152    -1.53322563171E+001                                                     F               0         Blade 1 Y translation displacement, node 12, m
        153    -1.17755455017E+002                                                     F               0         Blade 1 Z translation displacement, node 12, m
        154     1.99045884609E+000                                                     F               0         Blade 1 X translation displacement, node 13, m
        155    -1.57276773453E+001                                                     F               0         Blade 1 Y translation displacement, node 13, m
        156    -1.25367744446E+002                                                     F               0         Blade 1 Z translation displacement, node 13, m
        157     7.99602150917E-001                                                     F               0         Blade 1 X translation displacement, node 14, m
        158    -1.61230964661E+001                                                     F               0         Blade 1 Y translation displacement, node 14, m
        159    -1.32980010986E+002                                                     F               0         Blade 1 Z translation displacement, node 14, m
        160    -3.91474932432E-001                                                     F               0         Blade 1 X translation displacement, node 15, m
        161    -1.65185890198E+001                                                     F               0         Blade 1 Y translation displacement, node 15, m
        162    -1.40593673706E+002                                                     F               0         Blade 1 Z translation displacement, node 15, m
        163    -1.58233237267E+000                                                     F               0         Blade 1 X translation displacement, node 16, m
        164    -1.69140071869E+001                                                     F               0         Blade 1 Y translation displacement, node 16, m
        165    -1.48205947876E+002                                                     F               0         Blade 1 Z translation displacement, node 16, m
        166    -2.77319455147E+000                                                     F               0         Blade 1 X translation displacement, node 17, m
        167    -1.73094291687E+001                                                     F               0         Blade 1 Y translation displacement, node 17, m
        168    -1.55818237305E+002                                                     F               0         Blade 1 Z translation displacement, node 17, m
        169    -3.96405220032E+000                                                     F               0         Blade 1 X translation displacement, node 18, m
        170    -1.77048492432E+001                                                     F               0         Blade 1 Y translation displacement, node 18, m
        171    -1.63430511475E+002                                                     F               0         Blade 1 Z translation displacement, node 18, m
        172    -5.15512228012E+000                                                     F               0         Blade 1 X translation displacement, node 19, m
        173    -1.81003379822E+001                                                     F               0         Blade 1 Y translation displacement, node 19, m
        174    -1.71044128418E+002                                                     F               0         Blade 1 Z translation displacement, node 19, m
        175    -6.34598398209E+000                                                     F               0         Blade 1 X translation displacement, node 20, m
        176    -1.84957580566E+001                                                     F               0         Blade 1 Y translation displacement, node 20, m
        177    -1.78656417847E+002                                                     F               0         Blade 1 Z translation displacement, node 20, m
        178    -7.53684186935E+000                                                     F               0         Blade 1 X translation displacement, node 21, m
        179    -1.88911781311E+001                                                     F               0         Blade 1 Y translation displacement, node 21, m
        180    -1.86268692017E+002                                                     F               0         Blade 1 Z translation displacement, node 21, m
        181    -8.72791671753E+000                                                     F               0         Blade 1 X translation displacement, node 22, m
        182    -1.92866706848E+001                                                     F               0         Blade 1 Y translation displacement, node 22, m
        183    -1.93882354736E+002                                                     F               0         Blade 1 Z translation displacement, node 22, m