
Linearized model: Predictions were generated on 13-Feb-2024 at 11:29:37 using OpenFAST, compiled as a 64-bit application using single precision at commit v3.5.1
 linked with  NWTC Subroutine Library; ElastoDyn; InflowWind; AeroDyn; ServoDyn; HydroDyn; MAP++ (<1.20.10>, <Oct-20-2023>)

Description from the FAST input file: CCT-9 Campign 4 model. Input files to be run with OpenFAST 3.5.0. GitHub branch from Lu Wang (https://github.com/luwang00/openfast/tree/dev) compiled on March 7, 2023.

Simulation information:
   Simulation time:                  1215.4750 s
   Rotor Speed:                         0.7918 rad/s
   Azimuth:                             3.6810 rad
   Wind Speed:                         16.0000 m/s
   Number of continuous states:         0
   Number of discrete states:           0
   Number of constraint states:         0
   Number of inputs:                  303
   Number of outputs:                   1
   Jacobians included in this file?    No

Order of inputs:
     Column   Operating Point                                                   Rotating Frame? Derivative Order Description
   ---------- ---------------                                                   --------------- ---------------- -----------
          1    -1.08005075455E+001                                                     F               0         X-component position of node 1 (hub), m
          2     0.00000000000E+000                                                     F               0         Y-component position of node 1 (hub), m
          3     1.49740173340E+002                                                     F               0         Z-component position of node 1 (hub), m
          4     1.36942625046E+001                                                     F               0         X-component position of node 2 (blade 1, node 1), m
          5    -5.24981784821E+000                                                     F               0         Y-component position of node 2 (blade 1, node 1), m
          6     1.45180236816E+002                                                     F               0         Z-component position of node 2 (blade 1, node 1), m
          7     1.34491348267E+001                                                     F               0         X-component position of node 3 (blade 1, node 2), m
          8    -4.50704479218E+000                                                     F               0         Y-component position of node 3 (blade 1, node 2), m
          9     1.44098480225E+002                                                     F               0         Z-component position of node 3 (blade 1, node 2), m
         10     1.01158237457E+001                                                     F               0         X-component position of node 4 (blade 1, node 3), m
         11     5.59338235855E+000                                                     F               0         Y-component position of node 4 (blade 1, node 3), m
         12     1.29388610840E+002                                                     F               0         Z-component position of node 4 (blade 1, node 3), m
         13     9.40564441681E+000                                                     F               0         X-component position of node 5 (blade 1, node 4), m
         14     7.74533796310E+000                                                     F               0         Y-component position of node 5 (blade 1, node 4), m
         15     1.26254592896E+002                                                     F               0         Z-component position of node 5 (blade 1, node 4), m
         16     8.69532585144E+000                                                     F               0         X-component position of node 6 (blade 1, node 5), m
         17     9.89770317078E+000                                                     F               0         Y-component position of node 6 (blade 1, node 5), m
         18     1.23119972229E+002                                                     F               0         Z-component position of node 6 (blade 1, node 5), m
         19     7.98514223099E+000                                                     F               0         X-component position of node 7 (blade 1, node 6), m
         20     1.20496673584E+001                                                     F               0         Y-component position of node 7 (blade 1, node 6), m
         21     1.19985931396E+002                                                     F               0         Z-component position of node 7 (blade 1, node 6), m
         22     7.27495527267E+000                                                     F               0         X-component position of node 8 (blade 1, node 7), m
         23     1.42016382217E+001                                                     F               0         Y-component position of node 8 (blade 1, node 7), m
         24     1.16851882935E+002                                                     F               0         Z-component position of node 8 (blade 1, node 7), m
         25     6.56464147568E+000                                                     F               0         X-component position of node 9 (blade 1, node 8), m
         26     1.63539943695E+001                                                     F               0         Y-component position of node 9 (blade 1, node 8), m
         27     1.13717277527E+002                                                     F               0         Z-component position of node 9 (blade 1, node 8), m
         28     5.85445356369E+000                                                     F               0         X-component position of node 10 (blade 1, node 9), m
         29     1.85059680939E+001                                                     F               0         Y-component position of node 10 (blade 1, node 9), m
         30     1.10583229065E+002                                                     F               0         Z-component position of node 10 (blade 1, node 9), m
         31     5.14426946640E+000                                                     F               0         X-component position of node 11 (blade 1, node 10), m
         32     2.06579322815E+001                                                     F               0         Y-component position of node 11 (blade 1, node 10), m
         33     1.07449188232E+002                                                     F               0         Z-component position of node 11 (blade 1, node 10), m
         34     4.43408155441E+000                                                     F               0         X-component position of node 12 (blade 1, node 11), m
         35     2.28099040985E+001                                                     F               0         Y-component position of node 12 (blade 1, node 11), m
         36     1.04315139771E+002                                                     F               0         Z-component position of node 12 (blade 1, node 11), m
         37     3.72377300262E+000                                                     F               0         X-component position of node 13 (blade 1, node 12), m
         38     2.49622535706E+001                                                     F               0         Y-component position of node 13 (blade 1, node 12), m
         39     1.01180541992E+002                                                     F               0         Z-component position of node 13 (blade 1, node 12), m
         40     3.01358461380E+000                                                     F               0         X-component position of node 14 (blade 1, node 13), m
         41     2.71142253876E+001                                                     F               0         Y-component position of node 14 (blade 1, node 13), m
         42     9.80464935303E+001                                                     F               0         Z-component position of node 14 (blade 1, node 13), m
         43     2.30340099335E+000                                                     F               0         X-component position of node 15 (blade 1, node 14), m
         44     2.92661895752E+001                                                     F               0         Y-component position of node 15 (blade 1, node 14), m
         45     9.49124603271E+001                                                     F               0         Z-component position of node 15 (blade 1, node 14), m
         46     1.59308445454E+000                                                     F               0         X-component position of node 16 (blade 1, node 15), m
         47     3.14185504913E+001                                                     F               0         Y-component position of node 16 (blade 1, node 15), m
         48     9.17778472900E+001                                                     F               0         Z-component position of node 16 (blade 1, node 15), m
         49     8.82900238037E-001                                                     F               0         X-component position of node 17 (blade 1, node 16), m
         50     3.35705184937E+001                                                     F               0         Y-component position of node 17 (blade 1, node 16), m
         51     8.86437988281E+001                                                     F               0         Z-component position of node 17 (blade 1, node 16), m
         52     1.72711849213E-001                                                     F               0         X-component position of node 18 (blade 1, node 17), m
         53     3.57224922180E+001                                                     F               0         Y-component position of node 18 (blade 1, node 17), m
         54     8.55097503662E+001                                                     F               0         Z-component position of node 18 (blade 1, node 17), m
         55    -5.37472724915E-001                                                     F               0         X-component position of node 19 (blade 1, node 18), m
         56     3.78744583130E+001                                                     F               0         Y-component position of node 19 (blade 1, node 18), m
         57     8.23757095337E+001                                                     F               0         Z-component position of node 19 (blade 1, node 18), m
         58    -1.24778330326E+000                                                     F               0         X-component position of node 20 (blade 1, node 19), m
         59     4.00268058777E+001                                                     F               0         Y-component position of node 20 (blade 1, node 19), m
         60     7.92411117554E+001                                                     F               0         Z-component position of node 20 (blade 1, node 19), m
         61    -1.95797193050E+000                                                     F               0         X-component position of node 21 (blade 1, node 20), m
         62     4.21787796021E+001                                                     F               0         Y-component position of node 21 (blade 1, node 20), m
         63     7.61070632935E+001                                                     F               0         Z-component position of node 21 (blade 1, node 20), m
         64    -2.66815638542E+000                                                     F               0         X-component position of node 22 (blade 1, node 21), m
         65     4.43307456970E+001                                                     F               0         Y-component position of node 22 (blade 1, node 21), m
         66     7.29730148315E+001                                                     F               0         Z-component position of node 22 (blade 1, node 21), m
         67    -3.37847065926E+000                                                     F               0         X-component position of node 23 (blade 1, node 22), m
         68     4.64831047058E+001                                                     F               0         Y-component position of node 23 (blade 1, node 22), m
         69     6.98384094238E+001                                                     F               0         Z-component position of node 23 (blade 1, node 22), m
         70    -4.08865928650E+000                                                     F               0         X-component position of node 24 (blade 1, node 23), m
         71     4.86350784302E+001                                                     F               0         Y-component position of node 24 (blade 1, node 23), m
         72     6.67043609619E+001                                                     F               0         Z-component position of node 24 (blade 1, node 23), m
         73    -4.79884338379E+000                                                     F               0         X-component position of node 25 (blade 1, node 24), m
         74     5.07870445251E+001                                                     F               0         Y-component position of node 25 (blade 1, node 24), m
         75     6.35703201294E+001                                                     F               0         Z-component position of node 25 (blade 1, node 24), m
         76    -5.50902795792E+000                                                     F               0         X-component position of node 26 (blade 1, node 25), m
         77     5.29390106201E+001                                                     F               0         Y-component position of node 26 (blade 1, node 25), m
         78     6.04362792969E+001                                                     F               0         Z-component position of node 26 (blade 1, node 25), m
         79    -6.21934223175E+000                                                     F               0         X-component position of node 27 (blade 1, node 26), m
         80     5.50913696289E+001                                                     F               0         Y-component position of node 27 (blade 1, node 26), m
         81     5.73016662598E+001                                                     F               0         Z-component position of node 27 (blade 1, node 26), m
         82    -6.92952585220E+000                                                     F               0         X-component position of node 28 (blade 1, node 27), m
         83     5.72433319092E+001                                                     F               0         Y-component position of node 28 (blade 1, node 27), m
         84     5.41676368713E+001                                                     F               0         Z-component position of node 28 (blade 1, node 27), m
         85    -7.53161334991E+000                                                     F               0         X-component position of node 29 (blade 1, node 28), m
         86     5.90677413940E+001                                                     F               0         Y-component position of node 29 (blade 1, node 28), m
         87     5.15106315613E+001                                                     F               0         Z-component position of node 29 (blade 1, node 28), m
         88     1.57608871460E+001                                                     F               0         X-component position of node 30 (blade 2, node 1), m
         89    -5.88744878769E+000                                                     F               0         Y-component position of node 30 (blade 2, node 1), m
         90     1.54528884888E+002                                                     F               0         Z-component position of node 30 (blade 2, node 1), m
         91     1.60137271881E+001                                                     F               0         X-component position of node 31 (blade 2, node 2), m
         92    -5.29831790924E+000                                                     F               0         Y-component position of node 31 (blade 2, node 2), m
         93     1.55699752808E+002                                                     F               0         Z-component position of node 31 (blade 2, node 2), m
         94     1.94519348145E+001                                                     F               0         X-component position of node 32 (blade 2, node 3), m
         95     2.71283459663E+000                                                     F               0         Y-component position of node 32 (blade 2, node 3), m
         96     1.71621749878E+002                                                     F               0         Z-component position of node 32 (blade 2, node 3), m
         97     2.01844692230E+001                                                     F               0         X-component position of node 33 (blade 2, node 4), m
         98     4.41966676712E+000                                                     F               0         Y-component position of node 33 (blade 2, node 4), m
         99     1.75014053345E+002                                                     F               0         Z-component position of node 33 (blade 2, node 4), m
        100     2.09171352386E+001                                                     F               0         X-component position of node 34 (blade 2, node 5), m
        101     6.12681627274E+000                                                     F               0         Y-component position of node 34 (blade 2, node 5), m
        102     1.78406951904E+002                                                     F               0         Z-component position of node 34 (blade 2, node 5), m
        103     2.16496715546E+001                                                     F               0         X-component position of node 35 (blade 2, node 6), m
        104     7.83364820480E+000                                                     F               0         Y-component position of node 35 (blade 2, node 6), m
        105     1.81799255371E+002                                                     F               0         Z-component position of node 35 (blade 2, node 6), m
        106     2.23822059631E+001                                                     F               0         X-component position of node 36 (blade 2, node 7), m
        107     9.54048252106E+000                                                     F               0         Y-component position of node 36 (blade 2, node 7), m
        108     1.85191558838E+002                                                     F               0         Z-component position of node 36 (blade 2, node 7), m
        109     2.31148719788E+001                                                     F               0         X-component position of node 37 (blade 2, node 8), m
        110     1.12476310730E+001                                                     F               0         Y-component position of node 37 (blade 2, node 8), m
        111     1.88584457397E+002                                                     F               0         Z-component position of node 37 (blade 2, node 8), m
        112     2.38474063873E+001                                                     F               0         X-component position of node 38 (blade 2, node 9), m
        113     1.29544630051E+001                                                     F               0         Y-component position of node 38 (blade 2, node 9), m
        114     1.91976745605E+002                                                     F               0         Z-component position of node 38 (blade 2, node 9), m
        115     2.45799407959E+001                                                     F               0         X-component position of node 39 (blade 2, node 10), m
        116     1.46612987518E+001                                                     F               0         Y-component position of node 39 (blade 2, node 10), m
        117     1.95369033813E+002                                                     F               0         Z-component position of node 39 (blade 2, node 10), m
        118     2.53124771118E+001                                                     F               0         X-component position of node 40 (blade 2, node 11), m
        119     1.63681354523E+001                                                     F               0         Y-component position of node 40 (blade 2, node 11), m
        120     1.98761337280E+002                                                     F               0         Z-component position of node 40 (blade 2, node 11), m
        121     2.60451431274E+001                                                     F               0         X-component position of node 41 (blade 2, node 12), m
        122     1.80752849579E+001                                                     F               0         Y-component position of node 41 (blade 2, node 12), m
        123     2.02154251099E+002                                                     F               0         Z-component position of node 41 (blade 2, node 12), m
        124     2.67776756287E+001                                                     F               0         X-component position of node 42 (blade 2, node 13), m
        125     1.97821159363E+001                                                     F               0         Y-component position of node 42 (blade 2, node 13), m
        126     2.05546539307E+002                                                     F               0         Z-component position of node 42 (blade 2, node 13), m
        127     2.75102119446E+001                                                     F               0         X-component position of node 43 (blade 2, node 14), m
        128     2.14889545441E+001                                                     F               0         Y-component position of node 43 (blade 2, node 14), m
        129     2.08938827515E+002                                                     F               0         Z-component position of node 43 (blade 2, node 14), m
        130     2.82428798676E+001                                                     F               0         X-component position of node 44 (blade 2, node 15), m
        131     2.31960983276E+001                                                     F               0         Y-component position of node 44 (blade 2, node 15), m
        132     2.12331741333E+002                                                     F               0         Z-component position of node 44 (blade 2, node 15), m
        133     2.89754123688E+001                                                     F               0         X-component position of node 45 (blade 2, node 16), m
        134     2.49029273987E+001                                                     F               0         Y-component position of node 45 (blade 2, node 16), m
        135     2.15724044800E+002                                                     F               0         Z-component position of node 45 (blade 2, node 16), m
        136     2.97079467773E+001                                                     F               0         X-component position of node 46 (blade 2, node 17), m
        137     2.66097621918E+001                                                     F               0         Y-component position of node 46 (blade 2, node 17), m
        138     2.19116333008E+002                                                     F               0         Z-component position of node 46 (blade 2, node 17), m
        139     3.04404811859E+001                                                     F               0         X-component position of node 47 (blade 2, node 18), m
        140     2.83165969849E+001                                                     F               0         Y-component position of node 47 (blade 2, node 18), m
        141     2.22508621216E+002                                                     F               0         Z-component position of node 47 (blade 2, node 18), m
        142     3.11731491089E+001                                                     F               0         X-component position of node 48 (blade 2, node 19), m
        143     3.00237445831E+001                                                     F               0         Y-component position of node 48 (blade 2, node 19), m
        144     2.25901535034E+002                                                     F               0         Z-component position of node 48 (blade 2, node 19), m
        145     3.19056835175E+001                                                     F               0         X-component position of node 49 (blade 2, node 20), m
        146     3.17305793762E+001                                                     F               0         Y-component position of node 49 (blade 2, node 20), m
        147     2.29293823242E+002                                                     F               0         Z-component position of node 49 (blade 2, node 20), m
        148     3.26382179260E+001                                                     F               0         X-component position of node 50 (blade 2, node 21), m
        149     3.34374237061E+001                                                     F               0         Y-component position of node 50 (blade 2, node 21), m
        150     2.32686126709E+002                                                     F               0         Z-component position of node 50 (blade 2, node 21), m
        151     3.33708839417E+001                                                     F               0         X-component position of node 51 (blade 2, node 22), m
        152     3.51445617676E+001                                                     F               0         Y-component position of node 51 (blade 2, node 22), m
        153     2.36079040527E+002                                                     F               0         Z-component position of node 51 (blade 2, node 22), m
        154     3.41034202576E+001                                                     F               0         X-component position of node 52 (blade 2, node 23), m
        155     3.68513908386E+001                                                     F               0         Y-component position of node 52 (blade 2, node 23), m
        156     2.39471328735E+002                                                     F               0         Z-component position of node 52 (blade 2, node 23), m
        157     3.48359565735E+001                                                     F               0         X-component position of node 53 (blade 2, node 24), m
        158     3.85582313538E+001                                                     F               0         Y-component position of node 53 (blade 2, node 24), m
        159     2.42863632202E+002                                                     F               0         Z-component position of node 53 (blade 2, node 24), m
        160     3.55684890747E+001                                                     F               0         X-component position of node 54 (blade 2, node 25), m
        161     4.02650642395E+001                                                     F               0         Y-component position of node 54 (blade 2, node 25), m
        162     2.46255920410E+002                                                     F               0         Z-component position of node 54 (blade 2, node 25), m
        163     3.63011550903E+001                                                     F               0         X-component position of node 55 (blade 2, node 26), m
        164     4.19722061157E+001                                                     F               0         Y-component position of node 55 (blade 2, node 26), m
        165     2.49648834229E+002                                                     F               0         Z-component position of node 55 (blade 2, node 26), m
        166     3.70336914062E+001                                                     F               0         X-component position of node 56 (blade 2, node 27), m
        167     4.36790428162E+001                                                     F               0         Y-component position of node 56 (blade 2, node 27), m
        168     2.53041122437E+002                                                     F               0         Z-component position of node 56 (blade 2, node 27), m
        169     3.76547203064E+001                                                     F               0         X-component position of node 57 (blade 2, node 28), m
        170     4.51260681152E+001                                                     F               0         Y-component position of node 57 (blade 2, node 28), m
        171     2.55917053223E+002                                                     F               0         Z-component position of node 57 (blade 2, node 28), m
        172     1.46795549393E+001                                                     F               0         X-component position of node 58 (blade 3, node 1), m