
Linearized model: Predictions were generated on 13-Feb-2024 at 12:12:09 using OpenFAST, compiled as a 64-bit application using single precision at commit v3.5.1
 linked with  NWTC Subroutine Library; ElastoDyn; InflowWind; AeroDyn; ServoDyn; HydroDyn; MAP++ (<1.20.10>, <Oct-20-2023>)

Description from the FAST input file: CCT-9 Campign 4 model. Input files to be run with OpenFAST 3.5.0. GitHub branch from Lu Wang (https://github.com/luwang00/openfast/tree/dev) compiled on March 7, 2023.

Simulation information:
   Simulation time:                   775.9500 s
   Rotor Speed:                         0.7919 rad/s
   Azimuth:                             4.3667 rad
   Wind Speed:                         24.0000 m/s
   Number of continuous states:         0
   Number of discrete states:           0
   Number of constraint states:         0
   Number of inputs:                   37
   Number of outputs:                   7
   Jacobians included in this file?    No

Order of inputs:
     Column   Operating Point                                                   Rotating Frame? Derivative Order Description
   ---------- ---------------                                                   --------------- ---------------- -----------
          1     6.82265138626E+000                                                     F               0         WAMIT X translation displacement, node 1, m
          2    -8.23497712612E-001                                                     F               0         WAMIT Y translation displacement, node 1, m
          3    -1.11998513341E-001                                                     F               0         WAMIT Z translation displacement, node 1, m
          4     9.95474278927E-001,  -6.68158475310E-003,  -9.47964042425E-002         F               0         WAMIT X orientation angle, node 1, rad
          5     1.18040274829E-002,   9.98493850231E-001,   5.35788722336E-002         F               0         WAMIT Y orientation angle, node 1, rad
          6     9.42956358194E-002,  -5.44553659856E-002,   9.94053781033E-001         F               0         WAMIT Z orientation angle, node 1, rad
          7    -1.68741494417E-003                                                     F               0         WAMIT X translation velocity, node 1, m/s
          8     1.70229192008E-004                                                     F               0         WAMIT Y translation velocity, node 1, m/s
          9    -4.00508893654E-003                                                     F               0         WAMIT Z translation velocity, node 1, m/s
         10     5.33332786290E-005                                                     F               0         WAMIT X rotation velocity, node 1, rad/s
         11    -1.61202915478E-004                                                     F               0         WAMIT Y rotation velocity, node 1, rad/s
         12     1.03285969999E-006                                                     F               0         WAMIT Z rotation velocity, node 1, rad/s
         13     7.36326305196E-003                                                     F               0         WAMIT X translation acceleration, node 1, m/s^2
         14    -3.15867760219E-003                                                     F               0         WAMIT Y translation acceleration, node 1, m/s^2
         15    -1.30210339557E-003                                                     F               0         WAMIT Z translation acceleration, node 1, m/s^2
         16     2.01988703338E-004                                                     F               0         WAMIT X rotation acceleration, node 1, rad/s^2
         17     4.25011938205E-004                                                     F               0         WAMIT Y rotation acceleration, node 1, rad/s^2
         18     3.42231869581E-005                                                     F               0         WAMIT Z rotation acceleration, node 1, rad/s^2
         19     6.82265138626E+000                                                     F               0         Platform-RefPt X translation displacement, node 1, m
         20    -8.23497712612E-001                                                     F               0         Platform-RefPt Y translation displacement, node 1, m
         21    -1.11998513341E-001                                                     F               0         Platform-RefPt Z translation displacement, node 1, m
         22     9.95474278927E-001,  -6.68158475310E-003,  -9.47964042425E-002         F               0         Platform-RefPt X orientation angle, node 1, rad
         23     1.18040274829E-002,   9.98493850231E-001,   5.35788722336E-002         F               0         Platform-RefPt Y orientation angle, node 1, rad
         24     9.42956358194E-002,  -5.44553659856E-002,   9.94053781033E-001         F               0         Platform-RefPt Z orientation angle, node 1, rad
         25    -1.68741494417E-003                                                     F               0         Platform-RefPt X translation velocity, node 1, m/s
         26     1.70229192008E-004                                                     F               0         Platform-RefPt Y translation velocity, node 1, m/s
         27    -4.00508893654E-003                                                     F               0         Platform-RefPt Z translation velocity, node 1, m/s
         28     5.33332786290E-005                                                     F               0         Platform-RefPt X rotation velocity, node 1, rad/s
         29    -1.61202915478E-004                                                     F               0         Platform-RefPt Y rotation velocity, node 1, rad/s
         30     1.03285969999E-006                                                     F               0         Platform-RefPt Z rotation velocity, node 1, rad/s
         31     7.36326305196E-003                                                     F               0         Platform-RefPt X translation acceleration, node 1, m/s^2
         32    -3.15867760219E-003                                                     F               0         Platform-RefPt Y translation acceleration, node 1, m/s^2
         33    -1.30210339557E-003                                                     F               0         Platform-RefPt Z translation acceleration, node 1, m/s^2
         34     2.01988703338E-004                                                     F               0         Platform-RefPt X rotation acceleration, node 1, rad/s^2
         35     4.25011938205E-004                                                     F               0         Platform-RefPt Y rotation acceleration, node 1, rad/s^2
         36     3.42231869581E-005                                                     F               0         Platform-RefPt Z rotation acceleration, node 1, rad/s^2
         37     0.00000000000E+000                                                     F               0         Extended input: wave elevation at platform ref point, m

Order of outputs:
        Row   Operating Point                                                   Rotating Frame? Derivative Order Description
   ---------- ---------------                                                   --------------- ---------------- -----------
          1     0.00000000000E+000                                                     F               0         Wave1Elev, (m)
          2    -7.38390781250E+004                                                     F               0         HydroFxi, (N)
          3     9.75532714844E+003                                                     F               0         HydroFyi, (N)
          4     2.03858944000E+008                                                     F               0         HydroFzi, (N)
          5    -1.17971424000E+008                                                     F               0         HydroMxi, (N-m)
          6    -2.07019824000E+008                                                     F               0         HydroMyi, (N-m)
          7    -6.70474500000E+005                                                     F               0         HydroMzi, (N-m)


Linearized state matrices:

D: 7 x 37
     0.00000000000E+000   0.00000000000E+000   0.00000000000E+000   0.00000000000E+000   0.00000000000E+000   0.00000000000E+000   0.00000000000E+000   0.00000000000E+000   0.00000000000E+000   0.00000000000E+000   0.00000000000E+000   0.00000000000E+000   0.00000000000E+000   0.00000000000E+000   0.00000000000E+000   0.00000000000E+000   0.00000000000E+000   0.00000000000E+000   0.00000000000E+000   0.00000000000E+000   0.00000000000E+000   0.00000000000E+000   0.00000000000E+000   0.00000000000E+000   0.00000000000E+000   0.00000000000E+000   0.00000000000E+000   0.00000000000E+000   0.00000000000E+000   0.00000000000E+000   0.00000000000E+000   0.00000000000E+000   0.00000000000E+000   0.00000000000E+000   0.00000000000E+000   0.00000000000E+000   0.00000000000E+000
    -6.85998695922E+003   0.00000000000E+000   0.00000000000E+000   0.00000000000E+000   0.00000000000E+000   0.00000000000E+000  -2.82196372871E+005   0.00000000000E+000   0.00000000000E+000   0.00000000000E+000   0.00000000000E+000   0.00000000000E+000  -9.38083896931E+006   0.00000000000E+000   1.99512100047E+001   0.00000000000E+000   9.82680351759E+007   0.00000000000E+000   0.00000000000E+000   0.00000000000E+000   0.00000000000E+000   0.00000000000E+000   0.00000000000E+000   0.00000000000E+000   0.00000000000E+000   0.00000000000E+000   0.00000000000E+000   0.00000000000E+000   0.00000000000E+000   0.00000000000E+000   0.00000000000E+000   0.00000000000E+000   0.00000000000E+000   0.00000000000E+000   0.00000000000E+000   0.00000000000E+000   0.00000000000E+000
     0.00000000000E+000   0.00000000000E+000   0.00000000000E+000   0.00000000000E+000   0.00000000000E+000   0.00000000000E+000   0.00000000000E+000  -2.82173288298E+005   0.00000000000E+000   0.00000000000E+000   0.00000000000E+000   0.00000000000E+000   0.00000000000E+000  -9.38088705685E+006   0.00000000000E+000  -9.82662446828E+007   0.00000000000E+000   1.78568117338E+003   0.00000000000E+000   0.00000000000E+000   0.00000000000E+000   0.00000000000E+000   0.00000000000E+000   0.00000000000E+000   0.00000000000E+000   0.00000000000E+000   0.00000000000E+000   0.00000000000E+000   0.00000000000E+000   0.00000000000E+000   0.00000000000E+000   0.00000000000E+000   0.00000000000E+000   0.00000000000E+000   0.00000000000E+000   0.00000000000E+000   0.00000000000E+000
     0.00000000000E+000   0.00000000000E+000  -4.39494666861E+006   0.00000000000E+000   4.12529615690E+003   0.00000000000E+000   0.00000000000E+000   0.00000000000E+000  -8.07248465846E+005   0.00000000000E+000   0.00000000000E+000   0.00000000000E+000   6.54808943743E+001   0.00000000000E+000  -2.41346206440E+007   0.00000000000E+000   1.76471002267E+004   0.00000000000E+000   0.00000000000E+000   0.00000000000E+000   0.00000000000E+000   0.00000000000E+000   0.00000000000E+000   0.00000000000E+000   0.00000000000E+000   0.00000000000E+000   0.00000000000E+000   0.00000000000E+000   0.00000000000E+000   0.00000000000E+000   0.00000000000E+000   0.00000000000E+000   0.00000000000E+000   0.00000000000E+000   0.00000000000E+000   0.00000000000E+000   0.00000000000E+000
     0.00000000000E+000   2.03858950998E+008  -9.75665326177E+003  -2.13421486209E+009   0.00000000000E+000   8.86938673733E+004   0.00000000000E+000   0.00000000000E+000   0.00000000000E+000  -2.78328002128E+009   0.00000000000E+000   0.00000000000E+000   0.00000000000E+000  -9.82010097437E+007   0.00000000000E+000  -1.13246530020E+010   0.00000000000E+000   5.29413006802E+004   0.00000000000E+000  -2.03858950998E+008   9.75665326177E+003   0.00000000000E+000   0.00000000000E+000   0.00000000000E+000   0.00000000000E+000   0.00000000000E+000   0.00000000000E+000   0.00000000000E+000   0.00000000000E+000   0.00000000000E+000   0.00000000000E+000   0.00000000000E+000   0.00000000000E+000   0.00000000000E+000   0.00000000000E+000   0.00000000000E+000   0.00000000000E+000
    -2.03858918258E+008   0.00000000000E+000  -6.98681142974E+004   0.00000000000E+000  -2.13398086613E+009   0.00000000000E+000   0.00000000000E+000   0.00000000000E+000   0.00000000000E+000   0.00000000000E+000  -2.78332769137E+009   0.00000000000E+000   9.82036617200E+007   0.00000000000E+000   1.93168638404E+004  -2.29183119828E+002  -1.13240534590E+010   0.00000000000E+000   2.03858918258E+008   0.00000000000E+000   7.37969679598E+004   0.00000000000E+000   0.00000000000E+000   0.00000000000E+000   0.00000000000E+000   0.00000000000E+000   0.00000000000E+000   0.00000000000E+000   0.00000000000E+000   0.00000000000E+000   0.00000000000E+000   0.00000000000E+000   0.00000000000E+000   0.00000000000E+000   0.00000000000E+000   0.00000000000E+000   0.00000000000E+000
     9.75563012279E+003   7.38391724425E+004   0.00000000000E+000   0.00000000000E+000   0.00000000000E+000   0.00000000000E+000   0.00000000000E+000   0.00000000000E+000   0.00000000000E+000   0.00000000000E+000   0.00000000000E+000  -2.51327388742E+009   0.00000000000E+000   1.55363653293E+003   0.00000000000E+000   4.40407593625E+004   0.00000000000E+000  -1.95913504720E+010  -9.75563012279E+003  -7.38391724425E+004   0.00000000000E+000   0.00000000000E+000   0.00000000000E+000   0.00000000000E+000   0.00000000000E+000   0.00000000000E+000   0.00000000000E+000   0.00000000000E+000   0.00000000000E+000   0.00000000000E+000   0.00000000000E+000   0.00000000000E+000   0.00000000000E+000   0.00000000000E+000   0.00000000000E+000   0.00000000000E+000   0.00000000000E+000
