
Linearized model: Predictions were generated on 13-Feb-2024 at 12:12:09 using OpenFAST, compiled as a 64-bit application using single precision at commit v3.5.1
 linked with  NWTC Subroutine Library; ElastoDyn; InflowWind; AeroDyn; ServoDyn; HydroDyn; MAP++ (<1.20.10>, <Oct-20-2023>)

Description from the FAST input file: CCT-9 Campign 4 model. Input files to be run with OpenFAST 3.5.0. GitHub branch from Lu Wang (https://github.com/luwang00/openfast/tree/dev) compiled on March 7, 2023.

Simulation information:
   Simulation time:                   770.6750 s
   Rotor Speed:                         0.7916 rad/s
   Azimuth:                             0.1897 rad
   Wind Speed:                         24.0000 m/s
   Number of continuous states:         0
   Number of discrete states:           0
   Number of constraint states:         0
   Number of inputs:                  303
   Number of outputs:                   1
   Jacobians included in this file?    No

Order of inputs:
     Column   Operating Point                                                   Rotating Frame? Derivative Order Description
   ---------- ---------------                                                   --------------- ---------------- -----------
          1    -1.08005075455E+001                                                     F               0         X-component position of node 1 (hub), m
          2     0.00000000000E+000                                                     F               0         Y-component position of node 1 (hub), m
          3     1.49740173340E+002                                                     F               0         Z-component position of node 1 (hub), m
          4     1.19174070358E+001                                                     F               0         X-component position of node 2 (blade 1, node 1), m
          5    -1.05821428299E+001                                                     F               0         Y-component position of node 2 (blade 1, node 1), m
          6     1.55016159058E+002                                                     F               0         Z-component position of node 2 (blade 1, node 1), m
          7     1.21821107864E+001                                                     F               0         X-component position of node 3 (blade 1, node 2), m
          8    -1.09098854065E+001                                                     F               0         Y-component position of node 3 (blade 1, node 2), m
          9     1.56282836914E+002                                                     F               0         Z-component position of node 3 (blade 1, node 2), m
         10     1.57816276550E+001                                                     F               0         X-component position of node 4 (blade 1, node 3), m
         11    -1.53666248322E+001                                                     F               0         Y-component position of node 4 (blade 1, node 3), m
         12     1.73507553101E+002                                                     F               0         Z-component position of node 4 (blade 1, node 3), m
         13     1.65485286713E+001                                                     F               0         X-component position of node 5 (blade 1, node 4), m
         14    -1.63161602020E+001                                                     F               0         Y-component position of node 5 (blade 1, node 4), m
         15     1.77177383423E+002                                                     F               0         Z-component position of node 5 (blade 1, node 4), m
         16     1.73155708313E+001                                                     F               0         X-component position of node 6 (blade 1, node 5), m
         17    -1.72658748627E+001                                                     F               0         Y-component position of node 6 (blade 1, node 5), m
         18     1.80847915649E+002                                                     F               0         Z-component position of node 6 (blade 1, node 5), m
         19     1.80824737549E+001                                                     F               0         X-component position of node 7 (blade 1, node 6), m
         20    -1.82154140472E+001                                                     F               0         Y-component position of node 7 (blade 1, node 6), m
         21     1.84517745972E+002                                                     F               0         Z-component position of node 7 (blade 1, node 6), m
         22     1.88493766785E+001                                                     F               0         X-component position of node 8 (blade 1, node 7), m
         23    -1.91649551392E+001                                                     F               0         Y-component position of node 8 (blade 1, node 7), m
         24     1.88187606812E+002                                                     F               0         Z-component position of node 8 (blade 1, node 7), m
         25     1.96164188385E+001                                                     F               0         X-component position of node 9 (blade 1, node 8), m
         26    -2.01146659851E+001                                                     F               0         Y-component position of node 9 (blade 1, node 8), m
         27     1.91858123779E+002                                                     F               0         Z-component position of node 9 (blade 1, node 8), m
         28     2.03833217621E+001                                                     F               0         X-component position of node 10 (blade 1, node 9), m
         29    -2.10642070770E+001                                                     F               0         Y-component position of node 10 (blade 1, node 9), m
         30     1.95527969360E+002                                                     F               0         Z-component position of node 10 (blade 1, node 9), m
         31     2.11502246857E+001                                                     F               0         X-component position of node 11 (blade 1, node 10), m
         32    -2.20137462616E+001                                                     F               0         Y-component position of node 11 (blade 1, node 10), m
         33     1.99197814941E+002                                                     F               0         Z-component position of node 11 (blade 1, node 10), m
         34     2.19171276093E+001                                                     F               0         X-component position of node 12 (blade 1, node 11), m
         35    -2.29632873535E+001                                                     F               0         Y-component position of node 12 (blade 1, node 11), m
         36     2.02867675781E+002                                                     F               0         Z-component position of node 12 (blade 1, node 11), m
         37     2.26841697693E+001                                                     F               0         X-component position of node 13 (blade 1, node 12), m
         38    -2.39129962921E+001                                                     F               0         Y-component position of node 13 (blade 1, node 12), m
         39     2.06538162231E+002                                                     F               0         Z-component position of node 13 (blade 1, node 12), m
         40     2.34510726929E+001                                                     F               0         X-component position of node 14 (blade 1, node 13), m
         41    -2.48625392914E+001                                                     F               0         Y-component position of node 14 (blade 1, node 13), m
         42     2.10208023071E+002                                                     F               0         Z-component position of node 14 (blade 1, node 13), m
         43     2.42179737091E+001                                                     F               0         X-component position of node 15 (blade 1, node 14), m
         44    -2.58120765686E+001                                                     F               0         Y-component position of node 15 (blade 1, node 14), m
         45     2.13877868652E+002                                                     F               0         Z-component position of node 15 (blade 1, node 14), m
         46     2.49850158691E+001                                                     F               0         X-component position of node 16 (blade 1, node 15), m
         47    -2.67617893219E+001                                                     F               0         Y-component position of node 16 (blade 1, node 15), m
         48     2.17548385620E+002                                                     F               0         Z-component position of node 16 (blade 1, node 15), m
         49     2.57519207001E+001                                                     F               0         X-component position of node 17 (blade 1, node 16), m
         50    -2.77113304138E+001                                                     F               0         Y-component position of node 17 (blade 1, node 16), m
         51     2.21218231201E+002                                                     F               0         Z-component position of node 17 (blade 1, node 16), m
         52     2.65188255310E+001                                                     F               0         X-component position of node 18 (blade 1, node 17), m
         53    -2.86608734131E+001                                                     F               0         Y-component position of node 18 (blade 1, node 17), m
         54     2.24888092041E+002                                                     F               0         Z-component position of node 18 (blade 1, node 17), m
         55     2.72857265472E+001                                                     F               0         X-component position of node 19 (blade 1, node 18), m
         56    -2.96104125977E+001                                                     F               0         Y-component position of node 19 (blade 1, node 18), m
         57     2.28557937622E+002                                                     F               0         Z-component position of node 19 (blade 1, node 18), m
         58     2.80527667999E+001                                                     F               0         X-component position of node 20 (blade 1, node 19), m
         59    -3.05601196289E+001                                                     F               0         Y-component position of node 20 (blade 1, node 19), m
         60     2.32228439331E+002                                                     F               0         Z-component position of node 20 (blade 1, node 19), m
         61     2.88196697235E+001                                                     F               0         X-component position of node 21 (blade 1, node 20), m
         62    -3.15096626282E+001                                                     F               0         Y-component position of node 21 (blade 1, node 20), m
         63     2.35898284912E+002                                                     F               0         Z-component position of node 21 (blade 1, node 20), m
         64     2.95865745544E+001                                                     F               0         X-component position of node 22 (blade 1, node 21), m
         65    -3.24592018127E+001                                                     F               0         Y-component position of node 22 (blade 1, node 21), m
         66     2.39568130493E+002                                                     F               0         Z-component position of node 22 (blade 1, node 21), m
         67     3.03536148071E+001                                                     F               0         X-component position of node 23 (blade 1, node 22), m
         68    -3.34089126587E+001                                                     F               0         Y-component position of node 23 (blade 1, node 22), m
         69     2.43238647461E+002                                                     F               0         Z-component position of node 23 (blade 1, node 22), m
         70     3.11205177307E+001                                                     F               0         X-component position of node 24 (blade 1, node 23), m
         71    -3.43584556580E+001                                                     F               0         Y-component position of node 24 (blade 1, node 23), m
         72     2.46908508301E+002                                                     F               0         Z-component position of node 24 (blade 1, node 23), m
         73     3.18874206543E+001                                                     F               0         X-component position of node 25 (blade 1, node 24), m
         74    -3.53079948425E+001                                                     F               0         Y-component position of node 25 (blade 1, node 24), m
         75     2.50578353882E+002                                                     F               0         Z-component position of node 25 (blade 1, node 24), m
         76     3.26543235779E+001                                                     F               0         X-component position of node 26 (blade 1, node 25), m
         77    -3.62575340271E+001                                                     F               0         Y-component position of node 26 (blade 1, node 25), m
         78     2.54248199463E+002                                                     F               0         Z-component position of node 26 (blade 1, node 25), m
         79     3.34213676453E+001                                                     F               0         X-component position of node 27 (blade 1, node 26), m
         80    -3.72072486877E+001                                                     F               0         Y-component position of node 27 (blade 1, node 26), m
         81     2.57918701172E+002                                                     F               0         Z-component position of node 27 (blade 1, node 26), m
         82     3.41882667542E+001                                                     F               0         X-component position of node 28 (blade 1, node 27), m
         83    -3.81567840576E+001                                                     F               0         Y-component position of node 28 (blade 1, node 27), m
         84     2.61588562012E+002                                                     F               0         Z-component position of node 28 (blade 1, node 27), m
         85     3.48384361267E+001                                                     F               0         X-component position of node 29 (blade 1, node 28), m
         86    -3.89617919922E+001                                                     F               0         Y-component position of node 29 (blade 1, node 28), m
         87     2.64699798584E+002                                                     F               0         Z-component position of node 29 (blade 1, node 28), m
         88     1.00275468826E+001                                                     F               0         X-component position of node 30 (blade 2, node 1), m
         89    -1.31928205490E+001                                                     F               0         Y-component position of node 30 (blade 2, node 1), m
         90     1.45978042603E+002                                                     F               0         Z-component position of node 30 (blade 2, node 1), m
         91     9.83687591553E+000                                                     F               0         X-component position of node 31 (blade 2, node 2), m
         92    -1.41496229172E+001                                                     F               0         Y-component position of node 31 (blade 2, node 2), m
         93     1.45066925049E+002                                                     F               0         Z-component position of node 31 (blade 2, node 2), m
         94     7.24406147003E+000                                                     F               0         X-component position of node 32 (blade 2, node 3), m
         95    -2.71605205536E+001                                                     F               0         Y-component position of node 32 (blade 2, node 3), m
         96     1.32677261353E+002                                                     F               0         Z-component position of node 32 (blade 2, node 3), m
         97     6.69164228439E+000                                                     F               0         X-component position of node 33 (blade 2, node 4), m
         98    -2.99325866699E+001                                                     F               0         Y-component position of node 33 (blade 2, node 4), m
         99     1.30037551880E+002                                                     F               0         Z-component position of node 33 (blade 2, node 4), m
        100     6.13912820816E+000                                                     F               0         X-component position of node 34 (blade 2, node 5), m
        101    -3.27051582336E+001                                                     F               0         Y-component position of node 34 (blade 2, node 5), m
        102     1.27397384644E+002                                                     F               0         Z-component position of node 34 (blade 2, node 5), m
        103     5.58671092987E+000                                                     F               0         X-component position of node 35 (blade 2, node 6), m
        104    -3.54772224426E+001                                                     F               0         Y-component position of node 35 (blade 2, node 6), m
        105     1.24757675171E+002                                                     F               0         Z-component position of node 35 (blade 2, node 6), m
        106     5.03429222107E+000                                                     F               0         X-component position of node 36 (blade 2, node 7), m
        107    -3.82492866516E+001                                                     F               0         Y-component position of node 36 (blade 2, node 7), m
        108     1.22117965698E+002                                                     F               0         Z-component position of node 36 (blade 2, node 7), m
        109     4.48177862167E+000                                                     F               0         X-component position of node 37 (blade 2, node 8), m
        110    -4.10218582153E+001                                                     F               0         Y-component position of node 37 (blade 2, node 8), m
        111     1.19477790833E+002                                                     F               0         Z-component position of node 37 (blade 2, node 8), m
        112     3.92935919762E+000                                                     F               0         X-component position of node 38 (blade 2, node 9), m
        113    -4.37939224243E+001                                                     F               0         Y-component position of node 38 (blade 2, node 9), m
        114     1.16838088989E+002                                                     F               0         Z-component position of node 38 (blade 2, node 9), m
        115     3.37694406509E+000                                                     F               0         X-component position of node 39 (blade 2, node 10), m
        116    -4.65659866333E+001                                                     F               0         Y-component position of node 39 (blade 2, node 10), m
        117     1.14198387146E+002                                                     F               0         Z-component position of node 39 (blade 2, node 10), m
        118     2.82452583313E+000                                                     F               0         X-component position of node 40 (blade 2, node 11), m
        119    -4.93380546570E+001                                                     F               0         Y-component position of node 40 (blade 2, node 11), m
        120     1.11558677673E+002                                                     F               0         Z-component position of node 40 (blade 2, node 11), m
        121     2.27201151848E+000                                                     F               0         X-component position of node 41 (blade 2, node 12), m
        122    -5.21106300354E+001                                                     F               0         Y-component position of node 41 (blade 2, node 12), m
        123     1.08918502808E+002                                                     F               0         Z-component position of node 41 (blade 2, node 12), m
        124     1.71959233284E+000                                                     F               0         X-component position of node 42 (blade 2, node 13), m
        125    -5.48826904297E+001                                                     F               0         Y-component position of node 42 (blade 2, node 13), m
        126     1.06278793335E+002                                                     F               0         Z-component position of node 42 (blade 2, node 13), m
        127     1.16717743874E+000                                                     F               0         X-component position of node 43 (blade 2, node 14), m
        128    -5.76547584534E+001                                                     F               0         Y-component position of node 43 (blade 2, node 14), m
        129     1.03639091492E+002                                                     F               0         Z-component position of node 43 (blade 2, node 14), m
        130     6.14658057690E-001                                                     F               0         X-component position of node 44 (blade 2, node 15), m
        131    -6.04273262024E+001                                                     F               0         Y-component position of node 44 (blade 2, node 15), m
        132     1.00998908997E+002                                                     F               0         Z-component position of node 44 (blade 2, node 15), m
        133     6.22398741543E-002                                                     F               0         X-component position of node 45 (blade 2, node 16), m
        134    -6.31993904114E+001                                                     F               0         Y-component position of node 45 (blade 2, node 16), m
        135     9.83591995239E+001                                                     F               0         Z-component position of node 45 (blade 2, node 16), m
        136    -4.90177094936E-001                                                     F               0         X-component position of node 46 (blade 2, node 17), m
        137    -6.59714584351E+001                                                     F               0         Y-component position of node 46 (blade 2, node 17), m
        138     9.57194976807E+001                                                     F               0         Z-component position of node 46 (blade 2, node 17), m
        139    -1.04259407520E+000                                                     F               0         X-component position of node 47 (blade 2, node 18), m
        140    -6.87435226440E+001                                                     F               0         Y-component position of node 47 (blade 2, node 18), m
        141     9.30797958374E+001                                                     F               0         Z-component position of node 47 (blade 2, node 18), m
        142    -1.59510791302E+000                                                     F               0         X-component position of node 48 (blade 2, node 19), m
        143    -7.15160903931E+001                                                     F               0         Y-component position of node 48 (blade 2, node 19), m
        144     9.04396209717E+001                                                     F               0         Z-component position of node 48 (blade 2, node 19), m
        145    -2.14752674103E+000                                                     F               0         X-component position of node 49 (blade 2, node 20), m
        146    -7.42881622314E+001                                                     F               0         Y-component position of node 49 (blade 2, node 20), m
        147     8.77999038696E+001                                                     F               0         Z-component position of node 49 (blade 2, node 20), m
        148    -2.69994282722E+000                                                     F               0         X-component position of node 50 (blade 2, node 21), m
        149    -7.70602264404E+001                                                     F               0         Y-component position of node 50 (blade 2, node 21), m
        150     8.51602020264E+001                                                     F               0         Z-component position of node 50 (blade 2, node 21), m
        151    -3.25246047974E+000                                                     F               0         X-component position of node 51 (blade 2, node 22), m
        152    -7.98327941895E+001                                                     F               0         Y-component position of node 51 (blade 2, node 22), m
        153     8.25200195312E+001                                                     F               0         Z-component position of node 51 (blade 2, node 22), m
        154    -3.80487918854E+000                                                     F               0         X-component position of node 52 (blade 2, node 23), m
        155    -8.26048583984E+001                                                     F               0         Y-component position of node 52 (blade 2, node 23), m
        156     7.98803100586E+001                                                     F               0         Z-component position of node 52 (blade 2, node 23), m
        157    -4.35729598999E+000                                                     F               0         X-component position of node 53 (blade 2, node 24), m
        158    -8.53769302368E+001                                                     F               0         Y-component position of node 53 (blade 2, node 24), m
        159     7.72406082153E+001                                                     F               0         Z-component position of node 53 (blade 2, node 24), m
        160    -4.90971231461E+000                                                     F               0         X-component position of node 54 (blade 2, node 25), m
        161    -8.81489868164E+001                                                     F               0         Y-component position of node 54 (blade 2, node 25), m
        162     7.46009063721E+001                                                     F               0         Z-component position of node 54 (blade 2, node 25), m
        163    -5.46223354340E+000                                                     F               0         X-component position of node 55 (blade 2, node 26), m
        164    -9.09215621948E+001                                                     F               0         Y-component position of node 55 (blade 2, node 26), m
        165     7.19607162476E+001                                                     F               0         Z-component position of node 55 (blade 2, node 26), m
        166    -6.01464891434E+000                                                     F               0         X-component position of node 56 (blade 2, node 27), m
        167    -9.36936340332E+001                                                     F               0         Y-component position of node 56 (blade 2, node 27), m
        168     6.93210144043E+001                                                     F               0         Z-component position of node 56 (blade 2, node 27), m
        169    -6.48297643661E+000                                                     F               0         X-component position of node 57 (blade 2, node 28), m
        170    -9.60437393188E+001                                                     F               0         Y-component position of node 57 (blade 2, node 28), m
        171     6.70831222534E+001                                                     F               0         Z-component position of node 57 (blade 2, node 28), m
        172     1.05116167068E+001                                                     F               0         X-component position of node 58 (blade 3, node 1), m