
Linearized model: Predictions were generated on 13-Feb-2024 at 11:29:37 using OpenFAST, compiled as a 64-bit application using single precision at commit v3.5.1
 linked with  NWTC Subroutine Library; ElastoDyn; InflowWind; AeroDyn; ServoDyn; HydroDyn; MAP++ (<1.20.10>, <Oct-20-2023>)

Description from the FAST input file: CCT-9 Campign 4 model. Input files to be run with OpenFAST 3.5.0. GitHub branch from Lu Wang (https://github.com/luwang00/openfast/tree/dev) compiled on March 7, 2023.

Simulation information:
   Simulation time:                  1217.2250 s
   Rotor Speed:                         0.7917 rad/s
   Azimuth:                             5.0668 rad
   Wind Speed:                         16.0000 m/s
   Number of continuous states:        14
   Number of discrete states:           0
   Number of constraint states:         0
   Number of inputs:                 1890
   Number of outputs:                  25
   Jacobians included in this file?    No

Order of continuous states:
   Row/Column Operating Point                                                   Rotating Frame? Derivative Order Description
   ---------- ---------------                                                   --------------- ---------------- -----------
          1     8.64536762238E+000                                                     F               2         Platform horizontal surge translation DOF (internal DOF index = DOF_Sg), m
          2    -6.19359076023E-001                                                     F               2         Platform horizontal sway translation DOF (internal DOF index = DOF_Sw), m
          3    -1.50423914194E-001                                                     F               2         Platform vertical heave translation DOF (internal DOF index = DOF_Hv), m
          4     5.17945960164E-002                                                     F               2         Platform roll tilt rotation DOF (internal DOF index = DOF_R), rad
          5     1.13026268780E-001                                                     F               2         Platform pitch tilt rotation DOF (internal DOF index = DOF_P), rad
          6     5.15057006851E-004                                                     F               2         Platform yaw rotation DOF (internal DOF index = DOF_Y), rad
          7     3.49595499039E+000                                                     F               2         Variable speed generator DOF (internal DOF index = DOF_GeAz), rad
          8    -2.09537509363E-004                                                     F               2         First time derivative of Platform horizontal surge translation DOF (internal DOF index = DOF_Sg), m/s
          9    -4.06989798648E-004                                                     F               2         First time derivative of Platform horizontal sway translation DOF (internal DOF index = DOF_Sw), m/s
         10    -7.56804924458E-003                                                     F               2         First time derivative of Platform vertical heave translation DOF (internal DOF index = DOF_Hv), m/s
         11     6.03844273428E-005                                                     F               2         First time derivative of Platform roll tilt rotation DOF (internal DOF index = DOF_R), rad/s
         12    -1.45121475725E-005                                                     F               2         First time derivative of Platform pitch tilt rotation DOF (internal DOF index = DOF_P), rad/s
         13     1.44443845329E-007                                                     F               2         First time derivative of Platform yaw rotation DOF (internal DOF index = DOF_Y), rad/s
         14     7.91683614254E-001                                                     F               2         First time derivative of Variable speed generator DOF (internal DOF index = DOF_GeAz), rad/s

Order of continuous state derivatives:
   Row/Column Operating Point                                                   Rotating Frame? Derivative Order Description
   ---------- ---------------                                                   --------------- ---------------- -----------
          1    -2.09537509363E-004                                                     F               2         First time derivative of Platform horizontal surge translation DOF (internal DOF index = DOF_Sg), m/s
          2    -4.06989798648E-004                                                     F               2         First time derivative of Platform horizontal sway translation DOF (internal DOF index = DOF_Sw), m/s
          3    -7.56804924458E-003                                                     F               2         First time derivative of Platform vertical heave translation DOF (internal DOF index = DOF_Hv), m/s
          4     6.03844273428E-005                                                     F               2         First time derivative of Platform roll tilt rotation DOF (internal DOF index = DOF_R), rad/s
          5    -1.45121475725E-005                                                     F               2         First time derivative of Platform pitch tilt rotation DOF (internal DOF index = DOF_P), rad/s
          6     1.44443845329E-007                                                     F               2         First time derivative of Platform yaw rotation DOF (internal DOF index = DOF_Y), rad/s
          7     7.91683614254E-001                                                     F               2         First time derivative of Variable speed generator DOF (internal DOF index = DOF_GeAz), rad/s
          8    -4.22007462475E-004                                                     F               2         First time derivative of First time derivative of Platform horizontal surge translation DOF (internal DOF index = DOF_Sg), m/s/s
          9     5.50620548893E-004                                                     F               2         First time derivative of First time derivative of Platform horizontal sway translation DOF (internal DOF index = DOF_Sw), m/s/s
         10    -3.45940556144E-004                                                     F               2         First time derivative of First time derivative of Platform vertical heave translation DOF (internal DOF index = DOF_Hv), m/s/s
         11    -2.94058118016E-005                                                     F               2         First time derivative of First time derivative of Platform roll tilt rotation DOF (internal DOF index = DOF_R), rad/s/s
         12    -2.89894105663E-005                                                     F               2         First time derivative of First time derivative of Platform pitch tilt rotation DOF (internal DOF index = DOF_P), rad/s/s
         13     2.45394204512E-007                                                     F               2         First time derivative of First time derivative of Platform yaw rotation DOF (internal DOF index = DOF_Y), rad/s/s
         14    -4.05229453463E-004                                                     F               2         First time derivative of First time derivative of Variable speed generator DOF (internal DOF index = DOF_GeAz), rad/s/s

Order of inputs:
     Column   Operating Point                                                   Rotating Frame? Derivative Order Description
   ---------- ---------------                                                   --------------- ---------------- -----------
          1     1.54552078247E+002                                                     F               0         Blade 1 X force, node 1, N
          2     1.13345317841E+001                                                     F               0         Blade 1 Y force, node 1, N
          3    -5.77186355591E+001                                                     F               0         Blade 1 Z force, node 1, N
          4     6.28319091797E+002                                                     F               0         Blade 1 X force, node 2, N
          5     2.21862316132E+001                                                     F               0         Blade 1 Y force, node 2, N
          6    -1.77854324341E+002                                                     F               0         Blade 1 Z force, node 2, N
          7     7.49022949219E+002                                                     F               0         Blade 1 X force, node 3, N
          8    -1.88123226166E+001                                                     F               0         Blade 1 Y force, node 3, N
          9    -1.04433616638E+002                                                     F               0         Blade 1 Z force, node 3, N
         10     9.35636779785E+002                                                     F               0         Blade 1 X force, node 4, N
         11    -5.79758262634E+001                                                     F               0         Blade 1 Y force, node 4, N
         12    -4.84995040894E+001                                                     F               0         Blade 1 Z force, node 4, N
         13     1.12225878906E+003                                                     F               0         Blade 1 X force, node 5, N
         14    -9.71401519775E+001                                                     F               0         Blade 1 Y force, node 5, N
         15     7.43490362167E+000                                                     F               0         Blade 1 Z force, node 5, N
         16     1.30887463379E+003                                                     F               0         Blade 1 X force, node 6, N
         17    -1.36304061890E+002                                                     F               0         Blade 1 Y force, node 6, N
         18     6.33696289062E+001                                                     F               0         Blade 1 Z force, node 6, N
         19     1.49548059082E+003                                                     F               0         Blade 1 X force, node 7, N
         20    -1.75466842651E+002                                                     F               0         Blade 1 Y force, node 7, N
         21     1.19303573608E+002                                                     F               0         Blade 1 Z force, node 7, N
         22     1.68209436035E+003                                                     F               0         Blade 1 X force, node 8, N
         23    -2.14630325317E+002                                                     F               0         Blade 1 Y force, node 8, N
         24     1.75237686157E+002                                                     F               0         Blade 1 Z force, node 8, N
         25     1.86870812988E+003                                                     F               0         Blade 1 X force, node 9, N
         26    -2.53793853760E+002                                                     F               0         Blade 1 Y force, node 9, N
         27     2.31171829224E+002                                                     F               0         Blade 1 Z force, node 9, N
         28     2.05532202148E+003                                                     F               0         Blade 1 X force, node 10, N
         29    -2.92957336426E+002                                                     F               0         Blade 1 Y force, node 10, N
         30     2.87105926514E+002                                                     F               0         Blade 1 Z force, node 10, N
         31     2.24193579102E+003                                                     F               0         Blade 1 X force, node 11, N
         32    -3.32120849609E+002                                                     F               0         Blade 1 Y force, node 11, N
         33     3.43040039062E+002                                                     F               0         Blade 1 Z force, node 11, N
         34     2.42856665039E+003                                                     F               0         Blade 1 X force, node 12, N
         35    -3.71286987305E+002                                                     F               0         Blade 1 Y force, node 12, N
         36     3.98977050781E+002                                                     F               0         Blade 1 Z force, node 12, N
         37     2.61518237305E+003                                                     F               0         Blade 1 X force, node 13, N
         38    -4.10450927734E+002                                                     F               0         Blade 1 Y force, node 13, N
         39     4.54911804199E+002                                                     F               0         Blade 1 Z force, node 13, N
         40     2.80177978516E+003                                                     F               0         Blade 1 X force, node 14, N
         41    -4.49611877441E+002                                                     F               0         Blade 1 Y force, node 14, N
         42     5.10843170166E+002                                                     F               0         Blade 1 Z force, node 14, N
         43     2.98841333008E+003                                                     F               0         Blade 1 X force, node 15, N
         44    -4.88778656006E+002                                                     F               0         Blade 1 Y force, node 15, N
         45     5.66781066895E+002                                                     F               0         Blade 1 Z force, node 15, N
         46     3.17500683594E+003                                                     F               0         Blade 1 X force, node 16, N
         47    -5.27938781738E+002                                                     F               0         Blade 1 Y force, node 16, N
         48     6.22711242676E+002                                                     F               0         Blade 1 Z force, node 16, N
         49     3.89701196289E+003                                                     F               0         Blade 1 X force, node 17, N
         50    -6.57117858887E+002                                                     F               0         Blade 1 Y force, node 17, N
         51     7.86006896973E+002                                                     F               0         Blade 1 Z force, node 17, N
         52     2.96512988281E+003                                                     F               0         Blade 1 X force, node 18, N
         53    -5.00295623779E+002                                                     F               0         Blade 1 Y force, node 18, N
         54     5.98794006348E+002                                                     F               0         Blade 1 Z force, node 18, N
         55     3.62694580078E+003                                                     F               0         Blade 1 X force, node 19, N
         56    -6.09336486816E+002                                                     F               0         Blade 1 Y force, node 19, N
         57     7.26205139160E+002                                                     F               0         Blade 1 Z force, node 19, N
         58     3.08311889648E+003                                                     F               0         Blade 1 X force, node 20, N
         59    -5.15898681641E+002                                                     F               0         Blade 1 Y force, node 20, N
         60     6.12388793945E+002                                                     F               0         Blade 1 Z force, node 20, N
         61     4.69782519531E+003                                                     F               0         Blade 1 X force, node 21, N
         62    -7.87460510254E+002                                                     F               0         Blade 1 Y force, node 21, N
         63     9.36374938965E+002                                                     F               0         Blade 1 Z force, node 21, N
         64     4.52894482422E+003                                                     F               0         Blade 1 X force, node 22, N
         65    -7.68005676270E+002                                                     F               0         Blade 1 Y force, node 22, N
         66     9.23758605957E+002                                                     F               0         Blade 1 Z force, node 22, N
         67     5.01609423828E+003                                                     F               0         Blade 1 X force, node 23, N
         68    -8.58485473633E+002                                                     F               0         Blade 1 Y force, node 23, N
         69     1.04182958984E+003                                                     F               0         Blade 1 Z force, node 23, N
         70     5.52911718750E+003                                                     F               0         Blade 1 X force, node 24, N
         71    -9.48140625000E+002                                                     F               0         Blade 1 Y force, node 24, N
         72     1.15278845215E+003                                                     F               0         Blade 1 Z force, node 24, N
         73     5.68402294922E+003                                                     F               0         Blade 1 X force, node 25, N
         74    -9.55812133789E+002                                                     F               0         Blade 1 Y force, node 25, N
         75     1.14017785645E+003                                                     F               0         Blade 1 Z force, node 25, N
         76     5.80657373047E+003                                                     F               0         Blade 1 X force, node 26, N
         77    -9.52998107910E+002                                                     F               0         Blade 1 Y force, node 26, N
         78     1.10908569336E+003                                                     F               0         Blade 1 Z force, node 26, N
         79     6.90068945312E+003                                                     F               0         Blade 1 X force, node 27, N
         80    -1.10415563965E+003                                                     F               0         Blade 1 Y force, node 27, N
         81     1.25052734375E+003                                                     F               0         Blade 1 Z force, node 27, N
         82     5.06609082031E+003                                                     F               0         Blade 1 X force, node 28, N
         83    -7.90036010742E+002                                                     F               0         Blade 1 Y force, node 28, N
         84     8.69165344238E+002                                                     F               0         Blade 1 Z force, node 28, N
         85     6.14240625000E+003                                                     F               0         Blade 1 X force, node 29, N
         86    -9.36901855469E+002                                                     F               0         Blade 1 Y force, node 29, N
         87     1.00395001221E+003                                                     F               0         Blade 1 Z force, node 29, N
         88     5.18130908203E+003                                                     F               0         Blade 1 X force, node 30, N
         89    -7.73210449219E+002                                                     F               0         Blade 1 Y force, node 30, N
         90     8.06226501465E+002                                                     F               0         Blade 1 Z force, node 30, N
         91     7.41006933594E+003                                                     F               0         Blade 1 X force, node 31, N
         92    -1.07738659668E+003                                                     F               0         Blade 1 Y force, node 31, N
         93     1.08546386719E+003                                                     F               0         Blade 1 Z force, node 31, N
         94     6.43940429688E+003                                                     F               0         Blade 1 X force, node 32, N
         95    -9.11200744629E+002                                                     F               0         Blade 1 Y force, node 32, N
         96     8.83715881348E+002                                                     F               0         Blade 1 Z force, node 32, N
         97     6.53187402344E+003                                                     F               0         Blade 1 X force, node 33, N
         98    -9.01046020508E+002                                                     F               0         Blade 1 Y force, node 33, N
         99     8.41164123535E+002                                                     F               0         Blade 1 Z force, node 33, N
        100     6.62487988281E+003                                                     F               0         Blade 1 X force, node 34, N
        101    -8.90846679688E+002                                                     F               0         Blade 1 Y force, node 34, N
        102     7.98399536133E+002                                                     F               0         Blade 1 Z force, node 34, N
        103     6.71331787109E+003                                                     F               0         Blade 1 X force, node 35, N
        104    -8.79545715332E+002                                                     F               0         Blade 1 Y force, node 35, N
        105     7.53925964355E+002                                                     F               0         Blade 1 Z force, node 35, N
        106     6.79882812500E+003                                                     F               0         Blade 1 X force, node 36, N
        107    -8.67734924316E+002                                                     F               0         Blade 1 Y force, node 36, N
        108     7.08823425293E+002                                                     F               0         Blade 1 Z force, node 36, N
        109     8.04888720703E+003                                                     F               0         Blade 1 X force, node 37, N
        110    -9.99053894043E+002                                                     F               0         Blade 1 Y force, node 37, N
        111     7.72054870605E+002                                                     F               0         Blade 1 Z force, node 37, N
        112     5.78999267578E+003                                                     F               0         Blade 1 X force, node 38, N
        113    -6.99257385254E+002                                                     F               0         Blade 1 Y force, node 38, N
        114     5.09229064941E+002                                                     F               0         Blade 1 Z force, node 38, N
        115     7.01648486328E+003                                                     F               0         Blade 1 X force, node 39, N
        116    -8.27847290039E+002                                                     F               0         Blade 1 Y force, node 39, N
        117     5.70666259766E+002                                                     F               0         Blade 1 Z force, node 39, N
        118     5.91716015625E+003                                                     F               0         Blade 1 X force, node 40, N
        119    -6.81861022949E+002                                                     F               0         Blade 1 Y force, node 40, N
        120     4.42554290771E+002                                                     F               0         Blade 1 Z force, node 40, N
        121     8.28938769531E+003                                                     F               0         Blade 1 X force, node 41, N
        122    -9.29466979980E+002                                                     F               0         Blade 1 Y force, node 41, N
        123     5.58752075195E+002                                                     F               0         Blade 1 Z force, node 41, N
        124     7.16436669922E+003                                                     F               0         Blade 1 X force, node 42, N
        125    -7.82045715332E+002                                                     F               0         Blade 1 Y force, node 42, N
        126     4.32345458984E+002                                                     F               0         Blade 1 Z force, node 42, N
        127     7.19838134766E+003                                                     F               0         Blade 1 X force, node 43, N
        128    -7.65920715332E+002                                                     F               0         Blade 1 Y force, node 43, N
        129     3.87241851807E+002                                                     F               0         Blade 1 Z force, node 43, N
        130     7.26757958984E+003                                                     F               0         Blade 1 X force, node 44, N
        131    -7.53676086426E+002                                                     F               0         Blade 1 Y force, node 44, N
        132     3.44356292725E+002                                                     F               0         Blade 1 Z force, node 44, N
        133     7.21048339844E+003                                                     F               0         Blade 1 X force, node 45, N
        134    -7.29529174805E+002                                                     F               0         Blade 1 Y force, node 45, N
        135     2.98327026367E+002                                                     F               0         Blade 1 Z force, node 45, N
        136     7.26460205078E+003                                                     F               0         Blade 1 X force, node 46, N
        137    -7.17098205566E+002                                                     F               0         Blade 1 Y force, node 46, N
        138     2.58001159668E+002                                                     F               0         Blade 1 Z force, node 46, N
        139     8.54741796875E+003                                                     F               0         Blade 1 X force, node 47, N
        140    -8.21380676270E+002                                                     F               0         Blade 1 Y force, node 47, N
        141     2.50442474365E+002                                                     F               0         Blade 1 Z force, node 47, N
        142     6.01503515625E+003                                                     F               0         Blade 1 X force, node 48, N
        143    -5.63366394043E+002                                                     F               0         Blade 1 Y force, node 48, N
        144     1.41394622803E+002                                                     F               0         Blade 1 Z force, node 48, N
        145     7.27780566406E+003                                                     F               0         Blade 1 X force, node 49, N
        146    -6.67091369629E+002                                                     F               0         Blade 1 Y force, node 49, N
        147     1.36502426147E+002                                                     F               0         Blade 1 Z force, node 49, N
        148     6.12762255859E+003                                                     F               0         Blade 1 X force, node 50, N
        149    -5.49249633789E+002                                                     F               0         Blade 1 Y force, node 50, N
        150     8.54188919067E+001                                                     F               0         Blade 1 Z force, node 50, N
        151     8.40906542969E+003                                                     F               0         Blade 1 X force, node 51, N
        152    -7.34358642578E+002                                                     F               0         Blade 1 Y force, node 51, N
        153     7.11354370117E+001                                                     F               0         Blade 1 Z force, node 51, N
        154     7.24960107422E+003                                                     F               0         Blade 1 X force, node 52, N
        155    -6.17062622070E+002                                                     F               0         Blade 1 Y force, node 52, N
        156     2.31971969604E+001                                                     F               0         Blade 1 Z force, node 52, N
        157     7.23450439453E+003                                                     F               0         Blade 1 X force, node 53, N
        158    -6.00698791504E+002                                                     F               0         Blade 1 Y force, node 53, N