
Linearized model: Predictions were generated on 13-Feb-2024 at 11:29:37 using OpenFAST, compiled as a 64-bit application using single precision at commit v3.5.1
 linked with  NWTC Subroutine Library; ElastoDyn; InflowWind; AeroDyn; ServoDyn; HydroDyn; MAP++ (<1.20.10>, <Oct-20-2023>)

Description from the FAST input file: CCT-9 Campign 4 model. Input files to be run with OpenFAST 3.5.0. GitHub branch from Lu Wang (https://github.com/luwang00/openfast/tree/dev) compiled on March 7, 2023.

Simulation information:
   Simulation time:                  1212.8250 s
   Rotor Speed:                         0.7915 rad/s
   Azimuth:                             1.5831 rad
   Wind Speed:                         16.0000 m/s
   Number of continuous states:        14
   Number of discrete states:           0
   Number of constraint states:         0
   Number of inputs:                 1890
   Number of outputs:                  25
   Jacobians included in this file?    No

Order of continuous states:
   Row/Column Operating Point                                                   Rotating Frame? Derivative Order Description
   ---------- ---------------                                                   --------------- ---------------- -----------
          1     8.64532089233E+000                                                     F               2         Platform horizontal surge translation DOF (internal DOF index = DOF_Sg), m
          2    -6.18811488152E-001                                                     F               2         Platform horizontal sway translation DOF (internal DOF index = DOF_Sw), m
          3    -1.29434123635E-001                                                     F               2         Platform vertical heave translation DOF (internal DOF index = DOF_Hv), m
          4     5.16726672649E-002                                                     F               2         Platform roll tilt rotation DOF (internal DOF index = DOF_R), rad
          5     1.13023236394E-001                                                     F               2         Platform pitch tilt rotation DOF (internal DOF index = DOF_P), rad
          6     5.27314841747E-004                                                     F               2         Platform yaw rotation DOF (internal DOF index = DOF_Y), rad
          7     1.22970128432E-002                                                     F               2         Variable speed generator DOF (internal DOF index = DOF_GeAz), rad
          8     3.22189334838E-005                                                     F               2         First time derivative of Platform horizontal surge translation DOF (internal DOF index = DOF_Sg), m/s
          9     7.65358970966E-004                                                     F               2         First time derivative of Platform horizontal sway translation DOF (internal DOF index = DOF_Sw), m/s
         10    -7.43602809962E-004                                                     F               2         First time derivative of Platform vertical heave translation DOF (internal DOF index = DOF_Hv), m/s
         11    -4.35194633610E-005                                                     F               2         First time derivative of Platform roll tilt rotation DOF (internal DOF index = DOF_R), rad/s
         12     1.94690937860E-006                                                     F               2         First time derivative of Platform pitch tilt rotation DOF (internal DOF index = DOF_P), rad/s
         13    -5.69099256609E-007                                                     F               2         First time derivative of Platform yaw rotation DOF (internal DOF index = DOF_Y), rad/s
         14     7.91529893875E-001                                                     F               2         First time derivative of Variable speed generator DOF (internal DOF index = DOF_GeAz), rad/s

Order of continuous state derivatives:
   Row/Column Operating Point                                                   Rotating Frame? Derivative Order Description
   ---------- ---------------                                                   --------------- ---------------- -----------
          1     3.22189334838E-005                                                     F               2         First time derivative of Platform horizontal surge translation DOF (internal DOF index = DOF_Sg), m/s
          2     7.65358970966E-004                                                     F               2         First time derivative of Platform horizontal sway translation DOF (internal DOF index = DOF_Sw), m/s
          3    -7.43602809962E-004                                                     F               2         First time derivative of Platform vertical heave translation DOF (internal DOF index = DOF_Hv), m/s
          4    -4.35194633610E-005                                                     F               2         First time derivative of Platform roll tilt rotation DOF (internal DOF index = DOF_R), rad/s
          5     1.94690937860E-006                                                     F               2         First time derivative of Platform pitch tilt rotation DOF (internal DOF index = DOF_P), rad/s
          6    -5.69099256609E-007                                                     F               2         First time derivative of Platform yaw rotation DOF (internal DOF index = DOF_Y), rad/s
          7     7.91529893875E-001                                                     F               2         First time derivative of Variable speed generator DOF (internal DOF index = DOF_GeAz), rad/s
          8     7.30799976736E-004                                                     F               2         First time derivative of First time derivative of Platform horizontal surge translation DOF (internal DOF index = DOF_Sg), m/s/s
          9    -2.30959558394E-004                                                     F               2         First time derivative of First time derivative of Platform horizontal sway translation DOF (internal DOF index = DOF_Sw), m/s/s
         10    -1.84941105545E-003                                                     F               2         First time derivative of First time derivative of Platform vertical heave translation DOF (internal DOF index = DOF_Hv), m/s/s
         11     1.73133630597E-005                                                     F               2         First time derivative of First time derivative of Platform roll tilt rotation DOF (internal DOF index = DOF_R), rad/s/s
         12     4.11446926591E-005                                                     F               2         First time derivative of First time derivative of Platform pitch tilt rotation DOF (internal DOF index = DOF_P), rad/s/s
         13    -2.28693970712E-005                                                     F               2         First time derivative of First time derivative of Platform yaw rotation DOF (internal DOF index = DOF_Y), rad/s/s
         14     5.41326648090E-004                                                     F               2         First time derivative of First time derivative of Variable speed generator DOF (internal DOF index = DOF_GeAz), rad/s/s

Order of inputs:
     Column   Operating Point                                                   Rotating Frame? Derivative Order Description
   ---------- ---------------                                                   --------------- ---------------- -----------
          1     2.19719558716E+002                                                     F               0         Blade 1 X force, node 1, N
          2    -1.03606147766E+001                                                     F               0         Blade 1 Y force, node 1, N
          3     1.45956558228E+002                                                     F               0         Blade 1 Z force, node 1, N
          4     8.14871215820E+002                                                     F               0         Blade 1 X force, node 2, N
          5    -1.30019102097E+001                                                     F               0         Blade 1 Y force, node 2, N
          6     1.40472656250E+002                                                     F               0         Blade 1 Z force, node 2, N
          7     9.61619567871E+002                                                     F               0         Blade 1 X force, node 3, N
          8     1.97746586800E+000                                                     F               0         Blade 1 Y force, node 3, N
          9    -1.07328025818E+002                                                     F               0         Blade 1 Z force, node 3, N
         10     1.19579272461E+003                                                     F               0         Blade 1 X force, node 4, N
         11     1.52253828049E+001                                                     F               0         Blade 1 Y force, node 4, N
         12    -3.34751831055E+002                                                     F               0         Blade 1 Z force, node 4, N
         13     1.42997668457E+003                                                     F               0         Blade 1 X force, node 5, N
         14     2.84735488892E+001                                                     F               0         Blade 1 Y force, node 5, N
         15    -5.62180419922E+002                                                     F               0         Blade 1 Z force, node 5, N
         16     1.66415246582E+003                                                     F               0         Blade 1 X force, node 6, N
         17     4.17216072083E+001                                                     F               0         Blade 1 Y force, node 6, N
         18    -7.89606750488E+002                                                     F               0         Blade 1 Z force, node 6, N
         19     1.89831555176E+003                                                     F               0         Blade 1 X force, node 7, N
         20     5.49693031311E+001                                                     F               0         Blade 1 Y force, node 7, N
         21    -1.01702624512E+003                                                     F               0         Blade 1 Z force, node 7, N
         22     2.13248901367E+003                                                     F               0         Blade 1 X force, node 8, N
         23     6.82172241211E+001                                                     F               0         Blade 1 Y force, node 8, N
         24    -1.24445019531E+003                                                     F               0         Blade 1 Z force, node 8, N
         25     2.36666235352E+003                                                     F               0         Blade 1 X force, node 9, N
         26     8.14651489258E+001                                                     F               0         Blade 1 Y force, node 9, N
         27    -1.47187377930E+003                                                     F               0         Blade 1 Z force, node 9, N
         28     2.60083544922E+003                                                     F               0         Blade 1 X force, node 10, N
         29     9.47130661011E+001                                                     F               0         Blade 1 Y force, node 10, N
         30    -1.69929772949E+003                                                     F               0         Blade 1 Z force, node 10, N
         31     2.83500854492E+003                                                     F               0         Blade 1 X force, node 11, N
         32     1.07960983276E+002                                                     F               0         Blade 1 Y force, node 11, N
         33    -1.92672167969E+003                                                     F               0         Blade 1 Z force, node 11, N
         34     3.06920361328E+003                                                     F               0         Blade 1 X force, node 12, N
         35     1.21209762573E+002                                                     F               0         Blade 1 Y force, node 12, N
         36    -2.15416064453E+003                                                     F               0         Blade 1 Z force, node 12, N
         37     3.30337939453E+003                                                     F               0         Blade 1 X force, node 13, N
         38     1.34457824707E+002                                                     F               0         Blade 1 Y force, node 13, N
         39    -2.38158691406E+003                                                     F               0         Blade 1 Z force, node 13, N
         40     3.53753149414E+003                                                     F               0         Blade 1 X force, node 14, N
         41     1.47704910278E+002                                                     F               0         Blade 1 Y force, node 14, N
         42    -2.60899609375E+003                                                     F               0         Blade 1 Z force, node 14, N
         43     3.77172998047E+003                                                     F               0         Blade 1 X force, node 15, N
         44     1.60953903198E+002                                                     F               0         Blade 1 Y force, node 15, N
         45    -2.83643896484E+003                                                     F               0         Blade 1 Z force, node 15, N
         46     4.00587744141E+003                                                     F               0         Blade 1 X force, node 16, N
         47     1.74200683594E+002                                                     F               0         Blade 1 Y force, node 16, N
         48    -3.06384301758E+003                                                     F               0         Blade 1 Z force, node 16, N
         49     4.91410205078E+003                                                     F               0         Blade 1 X force, node 17, N
         50     2.16787979126E+002                                                     F               0         Blade 1 Y force, node 17, N
         51    -3.80723779297E+003                                                     F               0         Blade 1 Z force, node 17, N
         52     3.72897021484E+003                                                     F               0         Blade 1 X force, node 18, N
         53     1.61952194214E+002                                                     F               0         Blade 1 Y force, node 18, N
         54    -2.84879272461E+003                                                     F               0         Blade 1 Z force, node 18, N
         55     4.54735839844E+003                                                     F               0         Blade 1 X force, node 19, N
         56     1.92665054321E+002                                                     F               0         Blade 1 Y force, node 19, N
         57    -3.39784960938E+003                                                     F               0         Blade 1 Z force, node 19, N
         58     3.85453100586E+003                                                     F               0         Blade 1 X force, node 20, N
         59     1.59483718872E+002                                                     F               0         Blade 1 Y force, node 20, N
         60    -2.81981518555E+003                                                     F               0         Blade 1 Z force, node 20, N
         61     5.64469238281E+003                                                     F               0         Blade 1 X force, node 21, N
         62     2.27300735474E+002                                                     F               0         Blade 1 Y force, node 21, N
         63    -4.03084692383E+003                                                     F               0         Blade 1 Z force, node 21, N
         64     4.92502294922E+003                                                     F               0         Blade 1 X force, node 22, N
         65     1.93120422363E+002                                                     F               0         Blade 1 Y force, node 22, N
         66    -3.43493652344E+003                                                     F               0         Blade 1 Z force, node 22, N
         67     5.00556884766E+003                                                     F               0         Blade 1 X force, node 23, N
         68     1.91571411133E+002                                                     F               0         Blade 1 Y force, node 23, N
         69    -3.41689160156E+003                                                     F               0         Blade 1 Z force, node 23, N
         70     5.17117187500E+003                                                     F               0         Blade 1 X force, node 24, N
         71     1.93258575439E+002                                                     F               0         Blade 1 Y force, node 24, N
         72    -3.45660717773E+003                                                     F               0         Blade 1 Z force, node 24, N
         73     5.23129101562E+003                                                     F               0         Blade 1 X force, node 25, N
         74     1.91098159790E+002                                                     F               0         Blade 1 Y force, node 25, N
         75    -3.42730395508E+003                                                     F               0         Blade 1 Z force, node 25, N
         76     5.31720556641E+003                                                     F               0         Blade 1 X force, node 26, N
         77     1.89939666748E+002                                                     F               0         Blade 1 Y force, node 26, N
         78    -3.41584204102E+003                                                     F               0         Blade 1 Z force, node 26, N
         79     6.28656640625E+003                                                     F               0         Blade 1 X force, node 27, N
         80     2.19365905762E+002                                                     F               0         Blade 1 Y force, node 27, N
         81    -3.95656762695E+003                                                     F               0         Blade 1 Z force, node 27, N
         82     4.59207763672E+003                                                     F               0         Blade 1 X force, node 28, N
         83     1.56726394653E+002                                                     F               0         Blade 1 Y force, node 28, N
         84    -2.83474584961E+003                                                     F               0         Blade 1 Z force, node 28, N
         85     5.54426562500E+003                                                     F               0         Blade 1 X force, node 29, N
         86     1.85759475708E+002                                                     F               0         Blade 1 Y force, node 29, N
         87    -3.36791333008E+003                                                     F               0         Blade 1 Z force, node 29, N
         88     4.65767431641E+003                                                     F               0         Blade 1 X force, node 30, N
         89     1.53219406128E+002                                                     F               0         Blade 1 Y force, node 30, N
         90    -2.78464624023E+003                                                     F               0         Blade 1 Z force, node 30, N
         91     6.62728906250E+003                                                     F               0         Blade 1 X force, node 31, N
         92     2.13445465088E+002                                                     F               0         Blade 1 Y force, node 31, N
         93    -3.89020214844E+003                                                     F               0         Blade 1 Z force, node 31, N
         94     5.72567822266E+003                                                     F               0         Blade 1 X force, node 32, N
         95     1.80634078979E+002                                                     F               0         Blade 1 Y force, node 32, N
         96    -3.30146704102E+003                                                     F               0         Blade 1 Z force, node 32, N
         97     5.77653173828E+003                                                     F               0         Blade 1 X force, node 33, N
         98     1.78741668701E+002                                                     F               0         Blade 1 Y force, node 33, N
         99    -3.27565649414E+003                                                     F               0         Blade 1 Z force, node 33, N
        100     5.82644335938E+003                                                     F               0         Blade 1 X force, node 34, N
        101     1.76859542847E+002                                                     F               0         Blade 1 Y force, node 34, N
        102    -3.24993334961E+003                                                     F               0         Blade 1 Z force, node 34, N
        103     5.86665966797E+003                                                     F               0         Blade 1 X force, node 35, N
        104     1.74835540771E+002                                                     F               0         Blade 1 Y force, node 35, N
        105    -3.22120556641E+003                                                     F               0         Blade 1 Z force, node 35, N
        106     5.90289111328E+003                                                     F               0         Blade 1 X force, node 36, N
        107     1.72729461670E+002                                                     F               0         Blade 1 Y force, node 36, N
        108    -3.19086816406E+003                                                     F               0         Blade 1 Z force, node 36, N
        109     6.94145751953E+003                                                     F               0         Blade 1 X force, node 37, N
        110     1.99200927734E+002                                                     F               0         Blade 1 Y force, node 37, N
        111    -3.69048657227E+003                                                     F               0         Blade 1 Z force, node 37, N
        112     4.96451806641E+003                                                     F               0         Blade 1 X force, node 38, N
        113     1.39859573364E+002                                                     F               0         Blade 1 Y force, node 38, N
        114    -2.59830029297E+003                                                     F               0         Blade 1 Z force, node 38, N
        115     5.98888671875E+003                                                     F               0         Blade 1 X force, node 39, N
        116     1.66134613037E+002                                                     F               0         Blade 1 Y force, node 39, N
        117    -3.09369677734E+003                                                     F               0         Blade 1 Z force, node 39, N
        118     5.02783935547E+003                                                     F               0         Blade 1 X force, node 40, N
        119     1.37311691284E+002                                                     F               0         Blade 1 Y force, node 40, N
        120    -2.56314160156E+003                                                     F               0         Blade 1 Z force, node 40, N
        121     7.01081054688E+003                                                     F               0         Blade 1 X force, node 41, N
        122     1.88029724121E+002                                                     F               0         Blade 1 Y force, node 41, N
        123    -3.51984252930E+003                                                     F               0         Blade 1 Z force, node 41, N
        124     6.03800195312E+003                                                     F               0         Blade 1 X force, node 42, N
        125     1.59088973999E+002                                                     F               0         Blade 1 Y force, node 42, N
        126    -2.98649755859E+003                                                     F               0         Blade 1 Z force, node 42, N
        127     6.04734912109E+003                                                     F               0         Blade 1 X force, node 43, N
        128     1.56668869019E+002                                                     F               0         Blade 1 Y force, node 43, N
        129    -2.94907983398E+003                                                     F               0         Blade 1 Z force, node 43, N
        130     6.08726123047E+003                                                     F               0         Blade 1 X force, node 44, N
        131     1.55055801392E+002                                                     F               0         Blade 1 Y force, node 44, N
        132    -2.92680737305E+003                                                     F               0         Blade 1 Z force, node 44, N
        133     6.02611914062E+003                                                     F               0         Blade 1 X force, node 45, N
        134     1.51018325806E+002                                                     F               0         Blade 1 Y force, node 45, N
        135    -2.85830688477E+003                                                     F               0         Blade 1 Z force, node 45, N
        136     6.05924462891E+003                                                     F               0         Blade 1 X force, node 46, N
        137     1.49403640747E+002                                                     F               0         Blade 1 Y force, node 46, N
        138    -2.83547070312E+003                                                     F               0         Blade 1 Z force, node 46, N
        139     7.11464648438E+003                                                     F               0         Blade 1 X force, node 47, N
        140     1.72368499756E+002                                                     F               0         Blade 1 Y force, node 47, N
        141    -3.28113378906E+003                                                     F               0         Blade 1 Z force, node 47, N
        142     5.00129101562E+003                                                     F               0         Blade 1 X force, node 48, N
        143     1.19149368286E+002                                                     F               0         Blade 1 Y force, node 48, N
        144    -2.27467382812E+003                                                     F               0         Blade 1 Z force, node 48, N
        145     6.04813232422E+003                                                     F               0         Blade 1 X force, node 49, N
        146     1.42080856323E+002                                                     F               0         Blade 1 Y force, node 49, N
        147    -2.71913256836E+003                                                     F               0         Blade 1 Z force, node 49, N
        148     5.08963281250E+003                                                     F               0         Blade 1 X force, node 50, N
        149     1.17849220276E+002                                                     F               0         Blade 1 Y force, node 50, N
        150    -2.26117041016E+003                                                     F               0         Blade 1 Z force, node 50, N
        151     6.98054589844E+003                                                     F               0         Blade 1 X force, node 51, N
        152     1.58940231323E+002                                                     F               0         Blade 1 Y force, node 51, N
        153    -3.05879174805E+003                                                     F               0         Blade 1 Z force, node 51, N
        154     6.01483447266E+003                                                     F               0         Blade 1 X force, node 52, N
        155     1.34698898315E+002                                                     F               0         Blade 1 Y force, node 52, N
        156    -2.60010473633E+003                                                     F               0         Blade 1 Z force, node 52, N
        157     5.99930273438E+003                                                     F               0         Blade 1 X force, node 53, N
        158     1.32229553223E+002                                                     F               0         Blade 1 Y force, node 53, N