
Linearized model: Predictions were generated on 12-Jan-2024 at 09:28:28 using OpenFAST, compiled as a 64-bit application using single precision at commit v3.5.1
 linked with  NWTC Subroutine Library; ElastoDyn; InflowWind; AeroDyn; ServoDyn; HydroDyn; MAP++ (<1.20.10>, <Oct-20-2023>)

Description from the FAST input file: CCT-9 Campign 4 model. Input files to be run with OpenFAST 3.5.0. GitHub branch from Lu Wang (https://github.com/luwang00/openfast/tree/dev) compiled on March 7, 2023.

Simulation information:
   Simulation time:                   506.1750 s
   Rotor Speed:                         0.8777 rad/s
   Azimuth:                             2.9895 rad
   Wind Speed:                         10.0000 m/s
   Number of continuous states:        22
   Number of discrete states:           0
   Number of constraint states:         0
   Number of inputs:                 1890
   Number of outputs:                  38
   Jacobians included in this file?    No

Order of continuous states:
   Row/Column Operating Point                     Rotating Frame? Derivative Order Description
   ---------- ---------------                     --------------- ---------------- -----------
          1    8.829E+00                                 F               2         Platform horizontal surge translation DOF (internal DOF index = DOF_Sg), m
          2   -3.588E-01                                 F               2         Platform horizontal sway translation DOF (internal DOF index = DOF_Sw), m
          3   -1.671E-01                                 F               2         Platform vertical heave translation DOF (internal DOF index = DOF_Hv), m
          4    4.776E-02                                 F               2         Platform roll tilt rotation DOF (internal DOF index = DOF_R), rad
          5    1.188E-01                                 F               2         Platform pitch tilt rotation DOF (internal DOF index = DOF_P), rad
          6    7.278E-03                                 F               2         Platform yaw rotation DOF (internal DOF index = DOF_Y), rad
          7    7.534E-01                                 F               2         1st tower fore-aft bending mode DOF (internal DOF index = DOF_TFA1), m
          8    1.955E-01                                 F               2         1st tower side-to-side bending mode DOF (internal DOF index = DOF_TSS1), m
          9    1.529E-03                                 F               2         2nd tower fore-aft bending mode DOF (internal DOF index = DOF_TFA2), m
         10    8.249E-05                                 F               2         2nd tower side-to-side bending mode DOF (internal DOF index = DOF_TSS2), m
         11    1.419E+00                                 F               2         Variable speed generator DOF (internal DOF index = DOF_GeAz), rad
         12   -4.204E-03                                 F               2         First time derivative of Platform horizontal surge translation DOF (internal DOF index = DOF_Sg), m/s
         13    1.176E-03                                 F               2         First time derivative of Platform horizontal sway translation DOF (internal DOF index = DOF_Sw), m/s
         14    4.886E-03                                 F               2         First time derivative of Platform vertical heave translation DOF (internal DOF index = DOF_Hv), m/s
         15   -2.553E-04                                 F               2         First time derivative of Platform roll tilt rotation DOF (internal DOF index = DOF_R), rad/s
         16    4.163E-06                                 F               2         First time derivative of Platform pitch tilt rotation DOF (internal DOF index = DOF_P), rad/s
         17    1.272E-04                                 F               2         First time derivative of Platform yaw rotation DOF (internal DOF index = DOF_Y), rad/s
         18   -3.830E-03                                 F               2         First time derivative of 1st tower fore-aft bending mode DOF (internal DOF index = DOF_TFA1), m/s
         19   -1.098E-03                                 F               2         First time derivative of 1st tower side-to-side bending mode DOF (internal DOF index = DOF_TSS1), m/s
         20    2.078E-06                                 F               2         First time derivative of 2nd tower fore-aft bending mode DOF (internal DOF index = DOF_TFA2), m/s
         21    2.335E-08                                 F               2         First time derivative of 2nd tower side-to-side bending mode DOF (internal DOF index = DOF_TSS2), m/s
         22    8.777E-01                                 F               2         First time derivative of Variable speed generator DOF (internal DOF index = DOF_GeAz), rad/s

Order of continuous state derivatives:
   Row/Column Operating Point                     Rotating Frame? Derivative Order Description
   ---------- ---------------                     --------------- ---------------- -----------
          1   -4.204E-03                                 F               2         First time derivative of Platform horizontal surge translation DOF (internal DOF index = DOF_Sg), m/s
          2    1.176E-03                                 F               2         First time derivative of Platform horizontal sway translation DOF (internal DOF index = DOF_Sw), m/s
          3    4.886E-03                                 F               2         First time derivative of Platform vertical heave translation DOF (internal DOF index = DOF_Hv), m/s
          4   -2.553E-04                                 F               2         First time derivative of Platform roll tilt rotation DOF (internal DOF index = DOF_R), rad/s
          5    4.163E-06                                 F               2         First time derivative of Platform pitch tilt rotation DOF (internal DOF index = DOF_P), rad/s
          6    1.272E-04                                 F               2         First time derivative of Platform yaw rotation DOF (internal DOF index = DOF_Y), rad/s
          7   -3.830E-03                                 F               2         First time derivative of 1st tower fore-aft bending mode DOF (internal DOF index = DOF_TFA1), m/s
          8   -1.098E-03                                 F               2         First time derivative of 1st tower side-to-side bending mode DOF (internal DOF index = DOF_TSS1), m/s
          9    2.078E-06                                 F               2         First time derivative of 2nd tower fore-aft bending mode DOF (internal DOF index = DOF_TFA2), m/s
         10    2.335E-08                                 F               2         First time derivative of 2nd tower side-to-side bending mode DOF (internal DOF index = DOF_TSS2), m/s
         11    8.777E-01                                 F               2         First time derivative of Variable speed generator DOF (internal DOF index = DOF_GeAz), rad/s
         12   -1.139E-04                                 F               2         First time derivative of First time derivative of Platform horizontal surge translation DOF (internal DOF index = DOF_Sg), m/s/s
         13   -1.380E-03                                 F               2         First time derivative of First time derivative of Platform horizontal sway translation DOF (internal DOF index = DOF_Sw), m/s/s
         14    1.715E-04                                 F               2         First time derivative of First time derivative of Platform vertical heave translation DOF (internal DOF index = DOF_Hv), m/s/s
         15   -5.075E-05                                 F               2         First time derivative of First time derivative of Platform roll tilt rotation DOF (internal DOF index = DOF_R), rad/s/s
         16    1.357E-06                                 F               2         First time derivative of First time derivative of Platform pitch tilt rotation DOF (internal DOF index = DOF_P), rad/s/s
         17    1.875E-05                                 F               2         First time derivative of First time derivative of Platform yaw rotation DOF (internal DOF index = DOF_Y), rad/s/s
         18    8.529E-05                                 F               2         First time derivative of First time derivative of 1st tower fore-aft bending mode DOF (internal DOF index = DOF_TFA1), m/s/s
         19   -1.156E-02                                 F               2         First time derivative of First time derivative of 1st tower side-to-side bending mode DOF (internal DOF index = DOF_TSS1), m/s/s
         20   -3.802E-06                                 F               2         First time derivative of First time derivative of 2nd tower fore-aft bending mode DOF (internal DOF index = DOF_TFA2), m/s/s
         21   -2.757E-07                                 F               2         First time derivative of First time derivative of 2nd tower side-to-side bending mode DOF (internal DOF index = DOF_TSS2), m/s/s
         22    3.998E-04                                 F               2         First time derivative of First time derivative of Variable speed generator DOF (internal DOF index = DOF_GeAz), rad/s/s

Order of inputs:
     Column   Operating Point                     Rotating Frame? Derivative Order Description
   ---------- ---------------                     --------------- ---------------- -----------
          1    7.539E+01                                 F               0         Blade 1 X force, node 1, N
          2   -8.663E+01                                 F               0         Blade 1 Y force, node 1, N
          3   -8.325E+00                                 F               0         Blade 1 Z force, node 1, N
          4    3.157E+02                                 F               0         Blade 1 X force, node 2, N
          5   -1.563E+02                                 F               0         Blade 1 Y force, node 2, N
          6   -5.704E+01                                 F               0         Blade 1 Z force, node 2, N
          7    4.108E+02                                 F               0         Blade 1 X force, node 3, N
          8   -9.147E+01                                 F               0         Blade 1 Y force, node 3, N
          9   -8.624E+01                                 F               0         Blade 1 Z force, node 3, N
         10    5.395E+02                                 F               0         Blade 1 X force, node 4, N
         11   -4.606E+01                                 F               0         Blade 1 Y force, node 4, N
         12   -1.212E+02                                 F               0         Blade 1 Z force, node 4, N
         13    6.683E+02                                 F               0         Blade 1 X force, node 5, N
         14   -6.463E-01                                 F               0         Blade 1 Y force, node 5, N
         15   -1.562E+02                                 F               0         Blade 1 Z force, node 5, N
         16    7.971E+02                                 F               0         Blade 1 X force, node 6, N
         17    4.477E+01                                 F               0         Blade 1 Y force, node 6, N
         18   -1.912E+02                                 F               0         Blade 1 Z force, node 6, N
         19    9.258E+02                                 F               0         Blade 1 X force, node 7, N
         20    9.018E+01                                 F               0         Blade 1 Y force, node 7, N
         21   -2.262E+02                                 F               0         Blade 1 Z force, node 7, N
         22    1.055E+03                                 F               0         Blade 1 X force, node 8, N
         23    1.356E+02                                 F               0         Blade 1 Y force, node 8, N
         24   -2.612E+02                                 F               0         Blade 1 Z force, node 8, N
         25    1.183E+03                                 F               0         Blade 1 X force, node 9, N
         26    1.810E+02                                 F               0         Blade 1 Y force, node 9, N
         27   -2.962E+02                                 F               0         Blade 1 Z force, node 9, N
         28    1.312E+03                                 F               0         Blade 1 X force, node 10, N
         29    2.264E+02                                 F               0         Blade 1 Y force, node 10, N
         30   -3.312E+02                                 F               0         Blade 1 Z force, node 10, N
         31    1.441E+03                                 F               0         Blade 1 X force, node 11, N
         32    2.718E+02                                 F               0         Blade 1 Y force, node 11, N
         33   -3.662E+02                                 F               0         Blade 1 Z force, node 11, N
         34    1.570E+03                                 F               0         Blade 1 X force, node 12, N
         35    3.173E+02                                 F               0         Blade 1 Y force, node 12, N
         36   -4.012E+02                                 F               0         Blade 1 Z force, node 12, N
         37    1.698E+03                                 F               0         Blade 1 X force, node 13, N
         38    3.627E+02                                 F               0         Blade 1 Y force, node 13, N
         39   -4.362E+02                                 F               0         Blade 1 Z force, node 13, N
         40    1.827E+03                                 F               0         Blade 1 X force, node 14, N
         41    4.081E+02                                 F               0         Blade 1 Y force, node 14, N
         42   -4.712E+02                                 F               0         Blade 1 Z force, node 14, N
         43    1.956E+03                                 F               0         Blade 1 X force, node 15, N
         44    4.535E+02                                 F               0         Blade 1 Y force, node 15, N
         45   -5.062E+02                                 F               0         Blade 1 Z force, node 15, N
         46    2.085E+03                                 F               0         Blade 1 X force, node 16, N
         47    4.989E+02                                 F               0         Blade 1 Y force, node 16, N
         48   -5.412E+02                                 F               0         Blade 1 Z force, node 16, N
         49    2.569E+03                                 F               0         Blade 1 X force, node 17, N
         50    6.291E+02                                 F               0         Blade 1 Y force, node 17, N
         51   -6.683E+02                                 F               0         Blade 1 Z force, node 17, N
         52    1.976E+03                                 F               0         Blade 1 X force, node 18, N
         53    4.689E+02                                 F               0         Blade 1 Y force, node 18, N
         54   -5.126E+02                                 F               0         Blade 1 Z force, node 18, N
         55    2.446E+03                                 F               0         Blade 1 X force, node 19, N
         56    5.534E+02                                 F               0         Blade 1 Y force, node 19, N
         57   -6.316E+02                                 F               0         Blade 1 Z force, node 19, N
         58    2.103E+03                                 F               0         Blade 1 X force, node 20, N
         59    4.546E+02                                 F               0         Blade 1 Y force, node 20, N
         60   -5.406E+02                                 F               0         Blade 1 Z force, node 20, N
         61    3.133E+03                                 F               0         Blade 1 X force, node 21, N
         62    6.425E+02                                 F               0         Blade 1 Y force, node 21, N
         63   -8.016E+02                                 F               0         Blade 1 Z force, node 21, N
         64    2.788E+03                                 F               0         Blade 1 X force, node 22, N
         65    5.422E+02                                 F               0         Blade 1 Y force, node 22, N
         66   -7.103E+02                                 F               0         Blade 1 Z force, node 22, N
         67    2.884E+03                                 F               0         Blade 1 X force, node 23, N
         68    5.345E+02                                 F               0         Blade 1 Y force, node 23, N
         69   -7.319E+02                                 F               0         Blade 1 Z force, node 23, N
         70    3.032E+03                                 F               0         Blade 1 X force, node 24, N
         71    5.360E+02                                 F               0         Blade 1 Y force, node 24, N
         72   -7.667E+02                                 F               0         Blade 1 Z force, node 24, N
         73    3.127E+03                                 F               0         Blade 1 X force, node 25, N
         74    5.273E+02                                 F               0         Blade 1 Y force, node 25, N
         75   -7.880E+02                                 F               0         Blade 1 Z force, node 25, N
         76    3.239E+03                                 F               0         Blade 1 X force, node 26, N
         77    5.216E+02                                 F               0         Blade 1 Y force, node 26, N
         78   -8.136E+02                                 F               0         Blade 1 Z force, node 26, N
         79    3.904E+03                                 F               0         Blade 1 X force, node 27, N
         80    5.993E+02                                 F               0         Blade 1 Y force, node 27, N
         81   -9.775E+02                                 F               0         Blade 1 Z force, node 27, N
         82    2.910E+03                                 F               0         Blade 1 X force, node 28, N
         83    4.262E+02                                 F               0         Blade 1 Y force, node 28, N
         84   -7.264E+02                                 F               0         Blade 1 Z force, node 28, N
         85    3.575E+03                                 F               0         Blade 1 X force, node 29, N
         86    5.034E+02                                 F               0         Blade 1 Y force, node 29, N
         87   -8.902E+02                                 F               0         Blade 1 Z force, node 29, N
         88    3.054E+03                                 F               0         Blade 1 X force, node 30, N
         89    4.137E+02                                 F               0         Blade 1 Y force, node 30, N
         90   -7.587E+02                                 F               0         Blade 1 Z force, node 30, N
         91    4.432E+03                                 F               0         Blade 1 X force, node 31, N
         92    5.739E+02                                 F               0         Blade 1 Y force, node 31, N
         93   -1.098E+03                                 F               0         Blade 1 Z force, node 31, N
         94    3.910E+03                                 F               0         Blade 1 X force, node 32, N
         95    4.836E+02                                 F               0         Blade 1 Y force, node 32, N
         96   -9.664E+02                                 F               0         Blade 1 Z force, node 32, N
         97    4.021E+03                                 F               0         Blade 1 X force, node 33, N
         98    4.767E+02                                 F               0         Blade 1 Y force, node 33, N
         99   -9.915E+02                                 F               0         Blade 1 Z force, node 33, N
        100    4.132E+03                                 F               0         Blade 1 X force, node 34, N
        101    4.698E+02                                 F               0         Blade 1 Y force, node 34, N
        102   -1.017E+03                                 F               0         Blade 1 Z force, node 34, N
        103    4.244E+03                                 F               0         Blade 1 X force, node 35, N
        104    4.626E+02                                 F               0         Blade 1 Y force, node 35, N
        105   -1.042E+03                                 F               0         Blade 1 Z force, node 35, N
        106    4.354E+03                                 F               0         Blade 1 X force, node 36, N
        107    4.553E+02                                 F               0         Blade 1 Y force, node 36, N
        108   -1.067E+03                                 F               0         Blade 1 Z force, node 36, N
        109    5.225E+03                                 F               0         Blade 1 X force, node 37, N
        110    5.229E+02                                 F               0         Blade 1 Y force, node 37, N
        111   -1.278E+03                                 F               0         Blade 1 Z force, node 37, N
        112    3.816E+03                                 F               0         Blade 1 X force, node 38, N
        113    3.659E+02                                 F               0         Blade 1 Y force, node 38, N
        114   -9.318E+02                                 F               0         Blade 1 Z force, node 38, N
        115    4.688E+03                                 F               0         Blade 1 X force, node 39, N
        116    4.335E+02                                 F               0         Blade 1 Y force, node 39, N
        117   -1.143E+03                                 F               0         Blade 1 Z force, node 39, N
        118    4.006E+03                                 F               0         Blade 1 X force, node 40, N
        119    3.573E+02                                 F               0         Blade 1 Y force, node 40, N
        120   -9.753E+02                                 F               0         Blade 1 Z force, node 40, N
        121    5.704E+03                                 F               0         Blade 1 X force, node 41, N
        122    4.875E+02                                 F               0         Blade 1 Y force, node 41, N
        123   -1.386E+03                                 F               0         Blade 1 Z force, node 41, N
        124    5.020E+03                                 F               0         Blade 1 X force, node 42, N
        125    4.109E+02                                 F               0         Blade 1 Y force, node 42, N
        126   -1.218E+03                                 F               0         Blade 1 Z force, node 42, N
        127    5.130E+03                                 F               0         Blade 1 X force, node 43, N
        128    4.031E+02                                 F               0         Blade 1 Y force, node 43, N
        129   -1.243E+03                                 F               0         Blade 1 Z force, node 43, N
        130    5.268E+03                                 F               0         Blade 1 X force, node 44, N
        131    3.973E+02                                 F               0         Blade 1 Y force, node 44, N
        132   -1.275E+03                                 F               0         Blade 1 Z force, node 44, N
        133    5.322E+03                                 F               0         Blade 1 X force, node 45, N
        134    3.853E+02                                 F               0         Blade 1 Y force, node 45, N
        135   -1.286E+03                                 F               0         Blade 1 Z force, node 45, N
        136    5.460E+03                                 F               0         Blade 1 X force, node 46, N
        137    3.795E+02                                 F               0         Blade 1 Y force, node 46, N
        138   -1.318E+03                                 F               0         Blade 1 Z force, node 46, N
        139    6.547E+03                                 F               0         Blade 1 X force, node 47, N
        140    4.356E+02                                 F               0         Blade 1 Y force, node 47, N
        141   -1.578E+03                                 F               0         Blade 1 Z force, node 47, N
        142    4.701E+03                                 F               0         Blade 1 X force, node 48, N
        143    2.995E+02                                 F               0         Blade 1 Y force, node 48, N
        144   -1.132E+03                                 F               0         Blade 1 Z force, node 48, N
        145    5.788E+03                                 F               0         Blade 1 X force, node 49, N
        146    3.554E+02                                 F               0         Blade 1 Y force, node 49, N
        147   -1.392E+03                                 F               0         Blade 1 Z force, node 49, N
        148    4.958E+03                                 F               0         Blade 1 X force, node 50, N
        149    2.933E+02                                 F               0         Blade 1 Y force, node 50, N
        150   -1.191E+03                                 F               0         Blade 1 Z force, node 50, N
        151    6.945E+03                                 F               0         Blade 1 X force, node 51, N
        152    3.933E+02                                 F               0         Blade 1 Y force, node 51, N
        153   -1.666E+03                                 F               0         Blade 1 Z force, node 51, N
        154    6.117E+03                                 F               0         Blade 1 X force, node 52, N
        155    3.313E+02                                 F               0         Blade 1 Y force, node 52, N
        156   -1.466E+03                                 F               0         Blade 1 Z force, node 52, N
        157    6.228E+03                                 F               0         Blade 1 X force, node 53, N
        158    3.233E+02                                 F               0         Blade 1 Y force, node 53, N
        159   -1.491E+03                                 F               0         Blade 1 Z force, node 53, N
        160    6.408E+03                                 F               0         Blade 1 X force, node 54, N
        161    3.188E+02                                 F               0         Blade 1 Y force, node 54, N
        162   -1.533E+03                                 F               0         Blade 1 Z force, node 54, N
        163    6.379E+03                                 F               0         Blade 1 X force, node 55, N
        164    3.038E+02                                 F               0         Blade 1 Y force, node 55, N
        165   -1.524E+03                                 F               0         Blade 1 Z force, node 55, N
        166    6.558E+03                                 F               0         Blade 1 X force, node 56, N
        167    2.991E+02                                 F               0         Blade 1 Y force, node 56, N
        168   -1.566E+03                                 F               0         Blade 1 Z force, node 56, N
        169    7.875E+03                                 F               0         Blade 1 X force, node 57, N
        170    3.426E+02                                 F               0         Blade 1 Y force, node 57, N
        171   -1.879E+03                                 F               0         Blade 1 Z force, node 57, N
        172    5.571E+03                                 F               0         Blade 1 X force, node 58, N
        173    2.311E+02                                 F               0         Blade 1 Y force, node 58, N
        174   -1.328E+03                                 F               0         Blade 1 Z force, node 58, N
        175    6.888E+03                                 F               0         Blade 1 X force, node 59, N
        176    2.746E+02                                 F               0         Blade 1 Y force, node 59, N
        177   -1.640E+03                                 F               0         Blade 1 Z force, node 59, N
        178    5.926E+03                                 F               0         Blade 1 X force, node 60, N
        179    2.266E+02                                 F               0         Blade 1 Y force, node 60, N
        180   -1.410E+03                                 F               0         Blade 1 Z force, node 60, N
        181    8.179E+03                                 F               0         Blade 1 X force, node 61, N
        182    2.978E+02                                 F               0         Blade 1 Y force, node 61, N
        183   -1.945E+03                                 F               0         Blade 1 Z force, node 61, N
        184    7.215E+03                                 F               0         Blade 1 X force, node 62, N