
Linearized model: Predictions were generated on 06-Feb-2024 at 10:15:48 using OpenFAST, compiled as a 64-bit application using single precision at commit v3.5.1
 linked with  NWTC Subroutine Library; ElastoDyn; InflowWind; AeroDyn; ServoDyn; HydroDyn; MAP++ (<1.20.10>, <Oct-20-2023>)

Description from the FAST input file: CCT-9 Campign 4 model. Input files to be run with OpenFAST 3.5.0. GitHub branch from Lu Wang (https://github.com/luwang00/openfast/tree/dev) compiled on March 7, 2023.

Simulation information:
   Simulation time:                  1002.0000 s
   Rotor Speed:                         1.0394 rad/s
   Azimuth:                             3.1281 rad
   Wind Speed:                         12.0000 m/s
   Number of continuous states:        22
   Number of discrete states:           0
   Number of constraint states:         0
   Number of inputs:                 1890
   Number of outputs:                  19
   Jacobians included in this file?    No

Order of continuous states:
   Row/Column Operating Point                     Rotating Frame? Derivative Order Description
   ---------- ---------------                     --------------- ---------------- -----------
          1    1.230E+01                                 F               2         Platform horizontal surge translation DOF (internal DOF index = DOF_Sg), m
          2   -2.185E-01                                 F               2         Platform horizontal sway translation DOF (internal DOF index = DOF_Sw), m
          3   -2.608E-01                                 F               2         Platform vertical heave translation DOF (internal DOF index = DOF_Hv), m
          4    4.768E-02                                 F               2         Platform roll tilt rotation DOF (internal DOF index = DOF_R), rad
          5    1.571E-01                                 F               2         Platform pitch tilt rotation DOF (internal DOF index = DOF_P), rad
          6    1.037E-02                                 F               2         Platform yaw rotation DOF (internal DOF index = DOF_Y), rad
          7    1.085E+00                                 F               2         1st tower fore-aft bending mode DOF (internal DOF index = DOF_TFA1), m
          8    1.965E-01                                 F               2         1st tower side-to-side bending mode DOF (internal DOF index = DOF_TSS1), m
          9    1.612E-03                                 F               2         2nd tower fore-aft bending mode DOF (internal DOF index = DOF_TFA2), m
         10    8.214E-05                                 F               2         2nd tower side-to-side bending mode DOF (internal DOF index = DOF_TSS2), m
         11    1.557E+00                                 F               2         Variable speed generator DOF (internal DOF index = DOF_GeAz), rad
         12   -1.029E-03                                 F               2         First time derivative of Platform horizontal surge translation DOF (internal DOF index = DOF_Sg), m/s
         13   -1.175E-04                                 F               2         First time derivative of Platform horizontal sway translation DOF (internal DOF index = DOF_Sw), m/s
         14   -1.169E-03                                 F               2         First time derivative of Platform vertical heave translation DOF (internal DOF index = DOF_Hv), m/s
         15    1.878E-03                                 F               2         First time derivative of Platform roll tilt rotation DOF (internal DOF index = DOF_R), rad/s
         16   -3.272E-05                                 F               2         First time derivative of Platform pitch tilt rotation DOF (internal DOF index = DOF_P), rad/s
         17   -4.439E-04                                 F               2         First time derivative of Platform yaw rotation DOF (internal DOF index = DOF_Y), rad/s
         18   -2.825E-03                                 F               2         First time derivative of 1st tower fore-aft bending mode DOF (internal DOF index = DOF_TFA1), m/s
         19    1.126E-02                                 F               2         First time derivative of 1st tower side-to-side bending mode DOF (internal DOF index = DOF_TSS1), m/s
         20   -5.396E-06                                 F               2         First time derivative of 2nd tower fore-aft bending mode DOF (internal DOF index = DOF_TFA2), m/s
         21    5.292E-06                                 F               2         First time derivative of 2nd tower side-to-side bending mode DOF (internal DOF index = DOF_TSS2), m/s
         22    1.039E+00                                 F               2         First time derivative of Variable speed generator DOF (internal DOF index = DOF_GeAz), rad/s

Order of continuous state derivatives:
   Row/Column Operating Point                     Rotating Frame? Derivative Order Description
   ---------- ---------------                     --------------- ---------------- -----------
          1   -1.029E-03                                 F               2         First time derivative of Platform horizontal surge translation DOF (internal DOF index = DOF_Sg), m/s
          2   -1.175E-04                                 F               2         First time derivative of Platform horizontal sway translation DOF (internal DOF index = DOF_Sw), m/s
          3   -1.169E-03                                 F               2         First time derivative of Platform vertical heave translation DOF (internal DOF index = DOF_Hv), m/s
          4    1.878E-03                                 F               2         First time derivative of Platform roll tilt rotation DOF (internal DOF index = DOF_R), rad/s
          5   -3.272E-05                                 F               2         First time derivative of Platform pitch tilt rotation DOF (internal DOF index = DOF_P), rad/s
          6   -4.439E-04                                 F               2         First time derivative of Platform yaw rotation DOF (internal DOF index = DOF_Y), rad/s
          7   -2.825E-03                                 F               2         First time derivative of 1st tower fore-aft bending mode DOF (internal DOF index = DOF_TFA1), m/s
          8    1.126E-02                                 F               2         First time derivative of 1st tower side-to-side bending mode DOF (internal DOF index = DOF_TSS1), m/s
          9   -5.396E-06                                 F               2         First time derivative of 2nd tower fore-aft bending mode DOF (internal DOF index = DOF_TFA2), m/s
         10    5.292E-06                                 F               2         First time derivative of 2nd tower side-to-side bending mode DOF (internal DOF index = DOF_TSS2), m/s
         11    1.039E+00                                 F               2         First time derivative of Variable speed generator DOF (internal DOF index = DOF_GeAz), rad/s
         12    1.889E-05                                 F               2         First time derivative of First time derivative of Platform horizontal surge translation DOF (internal DOF index = DOF_Sg), m/s/s
         13   -8.517E-04                                 F               2         First time derivative of First time derivative of Platform horizontal sway translation DOF (internal DOF index = DOF_Sw), m/s/s
         14    1.458E-03                                 F               2         First time derivative of First time derivative of Platform vertical heave translation DOF (internal DOF index = DOF_Hv), m/s/s
         15   -1.281E-04                                 F               2         First time derivative of First time derivative of Platform roll tilt rotation DOF (internal DOF index = DOF_R), rad/s/s
         16   -2.347E-05                                 F               2         First time derivative of First time derivative of Platform pitch tilt rotation DOF (internal DOF index = DOF_P), rad/s/s
         17    1.134E-04                                 F               2         First time derivative of First time derivative of Platform yaw rotation DOF (internal DOF index = DOF_Y), rad/s/s
         18    6.364E-04                                 F               2         First time derivative of First time derivative of 1st tower fore-aft bending mode DOF (internal DOF index = DOF_TFA1), m/s/s
         19   -4.184E-03                                 F               2         First time derivative of First time derivative of 1st tower side-to-side bending mode DOF (internal DOF index = DOF_TSS1), m/s/s
         20   -8.151E-06                                 F               2         First time derivative of First time derivative of 2nd tower fore-aft bending mode DOF (internal DOF index = DOF_TFA2), m/s/s
         21   -5.747E-06                                 F               2         First time derivative of First time derivative of 2nd tower side-to-side bending mode DOF (internal DOF index = DOF_TSS2), m/s/s
         22    4.687E-04                                 F               2         First time derivative of First time derivative of Variable speed generator DOF (internal DOF index = DOF_GeAz), rad/s/s

Order of inputs:
     Column   Operating Point                     Rotating Frame? Derivative Order Description
   ---------- ---------------                     --------------- ---------------- -----------
          1    9.917E+01                                 F               0         Blade 1 X force, node 1, N
          2   -1.032E+02                                 F               0         Blade 1 Y force, node 1, N
          3   -3.138E+01                                 F               0         Blade 1 Z force, node 1, N
          4    4.288E+02                                 F               0         Blade 1 X force, node 2, N
          5   -1.895E+02                                 F               0         Blade 1 Y force, node 2, N
          6   -1.268E+02                                 F               0         Blade 1 Z force, node 2, N
          7    5.723E+02                                 F               0         Blade 1 X force, node 3, N
          8   -9.745E+01                                 F               0         Blade 1 Y force, node 3, N
          9   -1.639E+02                                 F               0         Blade 1 Z force, node 3, N
         10    7.616E+02                                 F               0         Blade 1 X force, node 4, N
         11   -2.838E+01                                 F               0         Blade 1 Y force, node 4, N
         12   -2.147E+02                                 F               0         Blade 1 Z force, node 4, N
         13    9.510E+02                                 F               0         Blade 1 X force, node 5, N
         14    4.069E+01                                 F               0         Blade 1 Y force, node 5, N
         15   -2.654E+02                                 F               0         Blade 1 Z force, node 5, N
         16    1.140E+03                                 F               0         Blade 1 X force, node 6, N
         17    1.098E+02                                 F               0         Blade 1 Y force, node 6, N
         18   -3.162E+02                                 F               0         Blade 1 Z force, node 6, N
         19    1.330E+03                                 F               0         Blade 1 X force, node 7, N
         20    1.788E+02                                 F               0         Blade 1 Y force, node 7, N
         21   -3.669E+02                                 F               0         Blade 1 Z force, node 7, N
         22    1.519E+03                                 F               0         Blade 1 X force, node 8, N
         23    2.479E+02                                 F               0         Blade 1 Y force, node 8, N
         24   -4.177E+02                                 F               0         Blade 1 Z force, node 8, N
         25    1.708E+03                                 F               0         Blade 1 X force, node 9, N
         26    3.170E+02                                 F               0         Blade 1 Y force, node 9, N
         27   -4.684E+02                                 F               0         Blade 1 Z force, node 9, N
         28    1.898E+03                                 F               0         Blade 1 X force, node 10, N
         29    3.860E+02                                 F               0         Blade 1 Y force, node 10, N
         30   -5.192E+02                                 F               0         Blade 1 Z force, node 10, N
         31    2.087E+03                                 F               0         Blade 1 X force, node 11, N
         32    4.551E+02                                 F               0         Blade 1 Y force, node 11, N
         33   -5.699E+02                                 F               0         Blade 1 Z force, node 11, N
         34    2.276E+03                                 F               0         Blade 1 X force, node 12, N
         35    5.242E+02                                 F               0         Blade 1 Y force, node 12, N
         36   -6.207E+02                                 F               0         Blade 1 Z force, node 12, N
         37    2.466E+03                                 F               0         Blade 1 X force, node 13, N
         38    5.933E+02                                 F               0         Blade 1 Y force, node 13, N
         39   -6.715E+02                                 F               0         Blade 1 Z force, node 13, N
         40    2.655E+03                                 F               0         Blade 1 X force, node 14, N
         41    6.623E+02                                 F               0         Blade 1 Y force, node 14, N
         42   -7.222E+02                                 F               0         Blade 1 Z force, node 14, N
         43    2.844E+03                                 F               0         Blade 1 X force, node 15, N
         44    7.314E+02                                 F               0         Blade 1 Y force, node 15, N
         45   -7.730E+02                                 F               0         Blade 1 Z force, node 15, N
         46    3.034E+03                                 F               0         Blade 1 X force, node 16, N
         47    8.005E+02                                 F               0         Blade 1 Y force, node 16, N
         48   -8.237E+02                                 F               0         Blade 1 Z force, node 16, N
         49    3.739E+03                                 F               0         Blade 1 X force, node 17, N
         50    1.005E+03                                 F               0         Blade 1 Y force, node 17, N
         51   -1.015E+03                                 F               0         Blade 1 Z force, node 17, N
         52    2.872E+03                                 F               0         Blade 1 X force, node 18, N
         53    7.475E+02                                 F               0         Blade 1 Y force, node 18, N
         54   -7.803E+02                                 F               0         Blade 1 Z force, node 18, N
         55    3.548E+03                                 F               0         Blade 1 X force, node 19, N
         56    8.815E+02                                 F               0         Blade 1 Y force, node 19, N
         57   -9.654E+02                                 F               0         Blade 1 Z force, node 19, N
         58    3.044E+03                                 F               0         Blade 1 X force, node 20, N
         59    7.234E+02                                 F               0         Blade 1 Y force, node 20, N
         60   -8.293E+02                                 F               0         Blade 1 Z force, node 20, N
         61    4.526E+03                                 F               0         Blade 1 X force, node 21, N
         62    1.022E+03                                 F               0         Blade 1 Y force, node 21, N
         63   -1.235E+03                                 F               0         Blade 1 Z force, node 21, N
         64    4.020E+03                                 F               0         Blade 1 X force, node 22, N
         65    8.619E+02                                 F               0         Blade 1 Y force, node 22, N
         66   -1.099E+03                                 F               0         Blade 1 Z force, node 22, N
         67    4.152E+03                                 F               0         Blade 1 X force, node 23, N
         68    8.494E+02                                 F               0         Blade 1 Y force, node 23, N
         69   -1.136E+03                                 F               0         Blade 1 Z force, node 23, N
         70    4.358E+03                                 F               0         Blade 1 X force, node 24, N
         71    8.516E+02                                 F               0         Blade 1 Y force, node 24, N
         72   -1.194E+03                                 F               0         Blade 1 Z force, node 24, N
         73    4.489E+03                                 F               0         Blade 1 X force, node 25, N
         74    8.380E+02                                 F               0         Blade 1 Y force, node 25, N
         75   -1.231E+03                                 F               0         Blade 1 Z force, node 25, N
         76    4.643E+03                                 F               0         Blade 1 X force, node 26, N
         77    8.292E+02                                 F               0         Blade 1 Y force, node 26, N
         78   -1.274E+03                                 F               0         Blade 1 Z force, node 26, N
         79    5.589E+03                                 F               0         Blade 1 X force, node 27, N
         80    9.530E+02                                 F               0         Blade 1 Y force, node 27, N
         81   -1.536E+03                                 F               0         Blade 1 Z force, node 27, N
         82    4.161E+03                                 F               0         Blade 1 X force, node 28, N
         83    6.783E+02                                 F               0         Blade 1 Y force, node 28, N
         84   -1.144E+03                                 F               0         Blade 1 Z force, node 28, N
         85    5.107E+03                                 F               0         Blade 1 X force, node 29, N
         86    8.016E+02                                 F               0         Blade 1 Y force, node 29, N
         87   -1.406E+03                                 F               0         Blade 1 Z force, node 29, N
         88    4.359E+03                                 F               0         Blade 1 X force, node 30, N
         89    6.593E+02                                 F               0         Blade 1 Y force, node 30, N
         90   -1.200E+03                                 F               0         Blade 1 Z force, node 30, N
         91    6.319E+03                                 F               0         Blade 1 X force, node 31, N
         92    9.154E+02                                 F               0         Blade 1 Y force, node 31, N
         93   -1.742E+03                                 F               0         Blade 1 Z force, node 31, N
         94    5.570E+03                                 F               0         Blade 1 X force, node 32, N
         95    7.725E+02                                 F               0         Blade 1 Y force, node 32, N
         96   -1.536E+03                                 F               0         Blade 1 Z force, node 32, N
         97    5.722E+03                                 F               0         Blade 1 X force, node 33, N
         98    7.624E+02                                 F               0         Blade 1 Y force, node 33, N
         99   -1.580E+03                                 F               0         Blade 1 Z force, node 33, N
        100    5.877E+03                                 F               0         Blade 1 X force, node 34, N
        101    7.524E+02                                 F               0         Blade 1 Y force, node 34, N
        102   -1.623E+03                                 F               0         Blade 1 Z force, node 34, N
        103    6.031E+03                                 F               0         Blade 1 X force, node 35, N
        104    7.422E+02                                 F               0         Blade 1 Y force, node 35, N
        105   -1.667E+03                                 F               0         Blade 1 Z force, node 35, N
        106    6.183E+03                                 F               0         Blade 1 X force, node 36, N
        107    7.317E+02                                 F               0         Blade 1 Y force, node 36, N
        108   -1.710E+03                                 F               0         Blade 1 Z force, node 36, N
        109    7.414E+03                                 F               0         Blade 1 X force, node 37, N
        110    8.419E+02                                 F               0         Blade 1 Y force, node 37, N
        111   -2.052E+03                                 F               0         Blade 1 Z force, node 37, N
        112    5.412E+03                                 F               0         Blade 1 X force, node 38, N
        113    5.903E+02                                 F               0         Blade 1 Y force, node 38, N
        114   -1.498E+03                                 F               0         Blade 1 Z force, node 38, N
        115    6.645E+03                                 F               0         Blade 1 X force, node 39, N
        116    7.006E+02                                 F               0         Blade 1 Y force, node 39, N
        117   -1.841E+03                                 F               0         Blade 1 Z force, node 39, N
        118    5.676E+03                                 F               0         Blade 1 X force, node 40, N
        119    5.786E+02                                 F               0         Blade 1 Y force, node 40, N
        120   -1.573E+03                                 F               0         Blade 1 Z force, node 40, N
        121    8.077E+03                                 F               0         Blade 1 X force, node 41, N
        122    7.915E+02                                 F               0         Blade 1 Y force, node 41, N
        123   -2.239E+03                                 F               0         Blade 1 Z force, node 41, N
        124    7.105E+03                                 F               0         Blade 1 X force, node 42, N
        125    6.689E+02                                 F               0         Blade 1 Y force, node 42, N
        126   -1.971E+03                                 F               0         Blade 1 Z force, node 42, N
        127    7.257E+03                                 F               0         Blade 1 X force, node 43, N
        128    6.579E+02                                 F               0         Blade 1 Y force, node 43, N
        129   -2.014E+03                                 F               0         Blade 1 Z force, node 43, N
        130    7.449E+03                                 F               0         Blade 1 X force, node 44, N
        131    6.504E+02                                 F               0         Blade 1 Y force, node 44, N
        132   -2.068E+03                                 F               0         Blade 1 Z force, node 44, N
        133    7.522E+03                                 F               0         Blade 1 X force, node 45, N
        134    6.326E+02                                 F               0         Blade 1 Y force, node 45, N
        135   -2.089E+03                                 F               0         Blade 1 Z force, node 45, N
        136    7.714E+03                                 F               0         Blade 1 X force, node 46, N
        137    6.251E+02                                 F               0         Blade 1 Y force, node 46, N
        138   -2.143E+03                                 F               0         Blade 1 Z force, node 46, N
        139    9.247E+03                                 F               0         Blade 1 X force, node 47, N
        140    7.201E+02                                 F               0         Blade 1 Y force, node 47, N
        141   -2.570E+03                                 F               0         Blade 1 Z force, node 47, N
        142    6.637E+03                                 F               0         Blade 1 X force, node 48, N
        143    4.970E+02                                 F               0         Blade 1 Y force, node 48, N
        144   -1.845E+03                                 F               0         Blade 1 Z force, node 48, N
        145    8.169E+03                                 F               0         Blade 1 X force, node 49, N
        146    5.918E+02                                 F               0         Blade 1 Y force, node 49, N
        147   -2.272E+03                                 F               0         Blade 1 Z force, node 49, N
        148    6.996E+03                                 F               0         Blade 1 X force, node 50, N
        149    4.901E+02                                 F               0         Blade 1 Y force, node 50, N
        150   -1.946E+03                                 F               0         Blade 1 Z force, node 50, N
        151    9.796E+03                                 F               0         Blade 1 X force, node 51, N
        152    6.599E+02                                 F               0         Blade 1 Y force, node 51, N
        153   -2.726E+03                                 F               0         Blade 1 Z force, node 51, N
        154    8.626E+03                                 F               0         Blade 1 X force, node 52, N
        155    5.585E+02                                 F               0         Blade 1 Y force, node 52, N
        156   -2.401E+03                                 F               0         Blade 1 Z force, node 52, N
        157    8.779E+03                                 F               0         Blade 1 X force, node 53, N
        158    5.476E+02                                 F               0         Blade 1 Y force, node 53, N
        159   -2.445E+03                                 F               0         Blade 1 Z force, node 53, N
        160    9.031E+03                                 F               0         Blade 1 X force, node 54, N
        161    5.425E+02                                 F               0         Blade 1 Y force, node 54, N
        162   -2.516E+03                                 F               0         Blade 1 Z force, node 54, N
        163    8.987E+03                                 F               0         Blade 1 X force, node 55, N
        164    5.197E+02                                 F               0         Blade 1 Y force, node 55, N
        165   -2.504E+03                                 F               0         Blade 1 Z force, node 55, N
        166    9.238E+03                                 F               0         Blade 1 X force, node 56, N
        167    5.144E+02                                 F               0         Blade 1 Y force, node 56, N
        168   -2.575E+03                                 F               0         Blade 1 Z force, node 56, N
        169    1.109E+04                                 F               0         Blade 1 X force, node 57, N
        170    5.928E+02                                 F               0         Blade 1 Y force, node 57, N
        171   -3.092E+03                                 F               0         Blade 1 Z force, node 57, N
        172    7.844E+03                                 F               0         Blade 1 X force, node 58, N
        173    4.026E+02                                 F               0         Blade 1 Y force, node 58, N
        174   -2.187E+03                                 F               0         Blade 1 Z force, node 58, N
        175    9.697E+03                                 F               0         Blade 1 X force, node 59, N
        176    4.809E+02                                 F               0         Blade 1 Y force, node 59, N
        177   -2.704E+03                                 F               0         Blade 1 Z force, node 59, N
        178    8.341E+03                                 F               0         Blade 1 X force, node 60, N
        179    3.994E+02                                 F               0         Blade 1 Y force, node 60, N
        180   -2.327E+03                                 F               0         Blade 1 Z force, node 60, N
        181    1.151E+04                                 F               0         Blade 1 X force, node 61, N
        182    5.288E+02                                 F               0         Blade 1 Y force, node 61, N
        183   -3.212E+03                                 F               0         Blade 1 Z force, node 61, N
        184    1.015E+04                                 F               0         Blade 1 X force, node 62, N