
Linearized model: Predictions were generated on 06-Feb-2024 at 10:15:48 using OpenFAST, compiled as a 64-bit application using single precision at commit v3.5.1
 linked with  NWTC Subroutine Library; ElastoDyn; InflowWind; AeroDyn; ServoDyn; HydroDyn; MAP++ (<1.20.10>, <Oct-20-2023>)

Description from the FAST input file: CCT-9 Campign 4 model. Input files to be run with OpenFAST 3.5.0. GitHub branch from Lu Wang (https://github.com/luwang00/openfast/tree/dev) compiled on March 7, 2023.

Simulation information:
   Simulation time:                  1003.2500 s
   Rotor Speed:                         1.0399 rad/s
   Azimuth:                             4.4277 rad
   Wind Speed:                         12.0000 m/s
   Number of continuous states:         0
   Number of discrete states:           0
   Number of constraint states:         0
   Number of inputs:                 1746
   Number of outputs:                   4
   Jacobians included in this file?    No

Order of inputs:
     Column   Operating Point                     Rotating Frame? Derivative Order Description
   ---------- ---------------                     --------------- ---------------- -----------
          1    1.514E+01                                 F               0         Tower X translation displacement, node 1, m
          2   -1.108E+00                                 F               0         Tower Y translation displacement, node 1, m
          3   -5.052E-01                                 F               0         Tower Z translation displacement, node 1, m
          4    1.707E+01                                 F               0         Tower X translation displacement, node 2, m
          5   -1.709E+00                                 F               0         Tower Y translation displacement, node 2, m
          6   -6.719E-01                                 F               0         Tower Z translation displacement, node 2, m
          7    1.904E+01                                 F               0         Tower X translation displacement, node 3, m
          8   -2.316E+00                                 F               0         Tower Y translation displacement, node 3, m
          9   -8.443E-01                                 F               0         Tower Z translation displacement, node 3, m
         10    2.103E+01                                 F               0         Tower X translation displacement, node 4, m
         11   -2.927E+00                                 F               0         Tower Y translation displacement, node 4, m
         12   -1.021E+00                                 F               0         Tower Z translation displacement, node 4, m
         13    2.304E+01                                 F               0         Tower X translation displacement, node 5, m
         14   -3.543E+00                                 F               0         Tower Y translation displacement, node 5, m
         15   -1.202E+00                                 F               0         Tower Z translation displacement, node 5, m
         16    2.508E+01                                 F               0         Tower X translation displacement, node 6, m
         17   -4.162E+00                                 F               0         Tower Y translation displacement, node 6, m
         18   -1.386E+00                                 F               0         Tower Z translation displacement, node 6, m
         19    2.712E+01                                 F               0         Tower X translation displacement, node 7, m
         20   -4.784E+00                                 F               0         Tower Y translation displacement, node 7, m
         21   -1.573E+00                                 F               0         Tower Z translation displacement, node 7, m
         22    2.918E+01                                 F               0         Tower X translation displacement, node 8, m
         23   -5.408E+00                                 F               0         Tower Y translation displacement, node 8, m
         24   -1.761E+00                                 F               0         Tower Z translation displacement, node 8, m
         25    3.125E+01                                 F               0         Tower X translation displacement, node 9, m
         26   -6.033E+00                                 F               0         Tower Y translation displacement, node 9, m
         27   -1.951E+00                                 F               0         Tower Z translation displacement, node 9, m
         28    3.332E+01                                 F               0         Tower X translation displacement, node 10, m
         29   -6.660E+00                                 F               0         Tower Y translation displacement, node 10, m
         30   -2.142E+00                                 F               0         Tower Z translation displacement, node 10, m
         31    3.539E+01                                 F               0         Tower X translation displacement, node 11, m
         32   -7.288E+00                                 F               0         Tower Y translation displacement, node 11, m
         33   -2.333E+00                                 F               0         Tower Z translation displacement, node 11, m
         34    9.879E-01,  1.362E-02, -1.547E-01         F               0         Tower X orientation angle, node 1, rad
         35   -5.942E-03,  9.987E-01,  4.998E-02         F               0         Tower Y orientation angle, node 1, rad
         36    1.552E-01, -4.846E-02,  9.867E-01         F               0         Tower Z orientation angle, node 1, rad
         37    9.875E-01,  1.375E-02, -1.573E-01         F               0         Tower X orientation angle, node 2, rad
         38   -5.866E-03,  9.987E-01,  5.046E-02         F               0         Tower Y orientation angle, node 2, rad
         39    1.578E-01, -4.890E-02,  9.863E-01         F               0         Tower Z orientation angle, node 2, rad
         40    9.871E-01,  1.386E-02, -1.596E-01         F               0         Tower X orientation angle, node 3, rad
         41   -5.797E-03,  9.987E-01,  5.089E-02         F               0         Tower Y orientation angle, node 3, rad
         42    1.601E-01, -4.931E-02,  9.859E-01         F               0         Tower Z orientation angle, node 3, rad
         43    9.868E-01,  1.396E-02, -1.616E-01         F               0         Tower X orientation angle, node 4, rad
         44   -5.736E-03,  9.987E-01,  5.126E-02         F               0         Tower Y orientation angle, node 4, rad
         45    1.621E-01, -4.966E-02,  9.855E-01         F               0         Tower Z orientation angle, node 4, rad
         46    9.865E-01,  1.405E-02, -1.632E-01         F               0         Tower X orientation angle, node 5, rad
         47   -5.683E-03,  9.987E-01,  5.159E-02         F               0         Tower Y orientation angle, node 5, rad
         48    1.637E-01, -4.996E-02,  9.852E-01         F               0         Tower Z orientation angle, node 5, rad
         49    9.863E-01,  1.411E-02, -1.646E-01         F               0         Tower X orientation angle, node 6, rad
         50   -5.638E-03,  9.986E-01,  5.185E-02         F               0         Tower Y orientation angle, node 6, rad
         51    1.651E-01, -5.021E-02,  9.850E-01         F               0         Tower Z orientation angle, node 6, rad
         52    9.861E-01,  1.417E-02, -1.656E-01         F               0         Tower X orientation angle, node 7, rad
         53   -5.602E-03,  9.986E-01,  5.207E-02         F               0         Tower Y orientation angle, node 7, rad
         54    1.661E-01, -5.042E-02,  9.848E-01         F               0         Tower Z orientation angle, node 7, rad
         55    9.860E-01,  1.421E-02, -1.664E-01         F               0         Tower X orientation angle, node 8, rad
         56   -5.574E-03,  9.986E-01,  5.224E-02         F               0         Tower Y orientation angle, node 8, rad
         57    1.669E-01, -5.058E-02,  9.847E-01         F               0         Tower Z orientation angle, node 8, rad
         58    9.859E-01,  1.423E-02, -1.669E-01         F               0         Tower X orientation angle, node 9, rad
         59   -5.553E-03,  9.986E-01,  5.236E-02         F               0         Tower Y orientation angle, node 9, rad
         60    1.674E-01, -5.069E-02,  9.846E-01         F               0         Tower Z orientation angle, node 9, rad
         61    9.858E-01,  1.425E-02, -1.672E-01         F               0         Tower X orientation angle, node 10, rad
         62   -5.540E-03,  9.986E-01,  5.244E-02         F               0         Tower Y orientation angle, node 10, rad
         63    1.678E-01, -5.077E-02,  9.845E-01         F               0         Tower Z orientation angle, node 10, rad
         64    9.858E-01,  1.426E-02, -1.674E-01         F               0         Tower X orientation angle, node 11, rad
         65   -5.532E-03,  9.986E-01,  5.248E-02         F               0         Tower Y orientation angle, node 11, rad
         66    1.679E-01, -5.081E-02,  9.845E-01         F               0         Tower Z orientation angle, node 11, rad
         67   -2.906E-03                                 F               0         Tower X translation velocity, node 1, m/s
         68   -3.089E-02                                 F               0         Tower Y translation velocity, node 1, m/s
         69   -6.570E-04                                 F               0         Tower Z translation velocity, node 1, m/s
         70   -3.990E-03                                 F               0         Tower X translation velocity, node 2, m/s
         71   -5.139E-02                                 F               0         Tower Y translation velocity, node 2, m/s
         72   -1.496E-03                                 F               0         Tower Z translation velocity, node 2, m/s
         73   -5.031E-03                                 F               0         Tower X translation velocity, node 3, m/s
         74   -7.216E-02                                 F               0         Tower Y translation velocity, node 3, m/s
         75   -2.363E-03                                 F               0         Tower Z translation velocity, node 3, m/s
         76   -6.042E-03                                 F               0         Tower X translation velocity, node 4, m/s
         77   -9.314E-02                                 F               0         Tower Y translation velocity, node 4, m/s
         78   -3.251E-03                                 F               0         Tower Z translation velocity, node 4, m/s
         79   -7.032E-03                                 F               0         Tower X translation velocity, node 5, m/s
         80   -1.143E-01                                 F               0         Tower Y translation velocity, node 5, m/s
         81   -4.158E-03                                 F               0         Tower Z translation velocity, node 5, m/s
         82   -8.009E-03                                 F               0         Tower X translation velocity, node 6, m/s
         83   -1.356E-01                                 F               0         Tower Y translation velocity, node 6, m/s
         84   -5.079E-03                                 F               0         Tower Z translation velocity, node 6, m/s
         85   -8.979E-03                                 F               0         Tower X translation velocity, node 7, m/s
         86   -1.571E-01                                 F               0         Tower Y translation velocity, node 7, m/s
         87   -6.010E-03                                 F               0         Tower Z translation velocity, node 7, m/s
         88   -9.946E-03                                 F               0         Tower X translation velocity, node 8, m/s
         89   -1.786E-01                                 F               0         Tower Y translation velocity, node 8, m/s
         90   -6.951E-03                                 F               0         Tower Z translation velocity, node 8, m/s
         91   -1.091E-02                                 F               0         Tower X translation velocity, node 9, m/s
         92   -2.002E-01                                 F               0         Tower Y translation velocity, node 9, m/s
         93   -7.897E-03                                 F               0         Tower Z translation velocity, node 9, m/s
         94   -1.188E-02                                 F               0         Tower X translation velocity, node 10, m/s
         95   -2.218E-01                                 F               0         Tower Y translation velocity, node 10, m/s
         96   -8.848E-03                                 F               0         Tower Z translation velocity, node 10, m/s
         97   -1.286E-02                                 F               0         Tower X translation velocity, node 11, m/s
         98   -2.435E-01                                 F               0         Tower Y translation velocity, node 11, m/s
         99   -9.801E-03                                 F               0         Tower Z translation velocity, node 11, m/s
        100    3.686E+01                                 F               0         Hub X translation displacement, node 1, m
        101   -7.841E+00                                 F               0         Hub Y translation displacement, node 1, m
        102   -6.471E-01                                 F               0         Hub Z translation displacement, node 1, m
        103    9.628E-01,  1.949E-02, -2.694E-01         F               0         Hub X orientation angle, node 1, rad
        104   -2.576E-01, -2.334E-01, -9.376E-01         F               0         Hub Y orientation angle, node 1, rad
        105   -8.117E-02,  9.722E-01, -2.197E-01         F               0         Hub Z orientation angle, node 1, rad
        106    1.003E+00                                 F               0         Hub X rotation velocity, node 1, rad/s
        107    2.021E-02                                 F               0         Hub Y rotation velocity, node 1, rad/s
        108   -2.805E-01                                 F               0         Hub Z rotation velocity, node 1, rad/s
        109    9.700E-01,  2.641E-02, -2.415E-01         F               0         Blade root 1 X orientation angle, node 1, rad
        110   -2.289E-01, -2.328E-01, -9.452E-01         F               0         Blade root 1 Y orientation angle, node 1, rad
        111   -8.117E-02,  9.722E-01, -2.197E-01         F               0         Blade root 1 Z orientation angle, node 1, rad
        112    9.607E-01, -8.955E-03, -2.775E-01         F               0         Blade root 2 X orientation angle, node 1, rad
        113    8.706E-02,  9.588E-01,  2.704E-01         F               0         Blade root 2 Y orientation angle, node 1, rad
        114    2.637E-01, -2.839E-01,  9.219E-01         F               0         Blade root 2 Z orientation angle, node 1, rad
        115    9.565E-01,  4.100E-02, -2.888E-01         F               0         Blade root 3 X orientation angle, node 1, rad
        116    2.276E-01, -7.243E-01,  6.508E-01         F               0         Blade root 3 Y orientation angle, node 1, rad
        117   -1.825E-01, -6.883E-01, -7.021E-01         F               0         Blade root 3 Z orientation angle, node 1, rad
        118    3.583E+01                                 F               0         Blade 1 X translation displacement, node 1, m
        119   -2.455E+00                                 F               0         Blade 1 Y translation displacement, node 1, m
        120   -7.374E+00                                 F               0         Blade 1 Z translation displacement, node 1, m
        121    3.559E+01                                 F               0         Blade 1 X translation displacement, node 2, m
        122   -1.157E+00                                 F               0         Blade 1 Y translation displacement, node 2, m
        123   -8.995E+00                                 F               0         Blade 1 Z translation displacement, node 2, m
        124    3.222E+01                                 F               0         Blade 1 X translation displacement, node 3, m
        125    1.649E+01                                 F               0         Blade 1 Y translation displacement, node 3, m
        126   -3.104E+01                                 F               0         Blade 1 Z translation displacement, node 3, m
        127    3.150E+01                                 F               0         Blade 1 X translation displacement, node 4, m
        128    2.025E+01                                 F               0         Blade 1 Y translation displacement, node 4, m
        129   -3.573E+01                                 F               0         Blade 1 Z translation displacement, node 4, m
        130    3.078E+01                                 F               0         Blade 1 X translation displacement, node 5, m
        131    2.401E+01                                 F               0         Blade 1 Y translation displacement, node 5, m
        132   -4.043E+01                                 F               0         Blade 1 Z translation displacement, node 5, m
        133    3.006E+01                                 F               0         Blade 1 X translation displacement, node 6, m
        134    2.777E+01                                 F               0         Blade 1 Y translation displacement, node 6, m
        135   -4.513E+01                                 F               0         Blade 1 Z translation displacement, node 6, m
        136    2.934E+01                                 F               0         Blade 1 X translation displacement, node 7, m
        137    3.153E+01                                 F               0         Blade 1 Y translation displacement, node 7, m
        138   -4.982E+01                                 F               0         Blade 1 Z translation displacement, node 7, m
        139    2.862E+01                                 F               0         Blade 1 X translation displacement, node 8, m
        140    3.529E+01                                 F               0         Blade 1 Y translation displacement, node 8, m
        141   -5.452E+01                                 F               0         Blade 1 Z translation displacement, node 8, m
        142    2.791E+01                                 F               0         Blade 1 X translation displacement, node 9, m
        143    3.905E+01                                 F               0         Blade 1 Y translation displacement, node 9, m
        144   -5.922E+01                                 F               0         Blade 1 Z translation displacement, node 9, m
        145    2.719E+01                                 F               0         Blade 1 X translation displacement, node 10, m
        146    4.281E+01                                 F               0         Blade 1 Y translation displacement, node 10, m
        147   -6.391E+01                                 F               0         Blade 1 Z translation displacement, node 10, m
        148    2.647E+01                                 F               0         Blade 1 X translation displacement, node 11, m
        149    4.657E+01                                 F               0         Blade 1 Y translation displacement, node 11, m
        150   -6.861E+01                                 F               0         Blade 1 Z translation displacement, node 11, m
        151    2.575E+01                                 F               0         Blade 1 X translation displacement, node 12, m
        152    5.033E+01                                 F               0         Blade 1 Y translation displacement, node 12, m
        153   -7.331E+01                                 F               0         Blade 1 Z translation displacement, node 12, m
        154    2.503E+01                                 F               0         Blade 1 X translation displacement, node 13, m
        155    5.409E+01                                 F               0         Blade 1 Y translation displacement, node 13, m
        156   -7.800E+01                                 F               0         Blade 1 Z translation displacement, node 13, m
        157    2.431E+01                                 F               0         Blade 1 X translation displacement, node 14, m
        158    5.785E+01                                 F               0         Blade 1 Y translation displacement, node 14, m
        159   -8.270E+01                                 F               0         Blade 1 Z translation displacement, node 14, m
        160    2.360E+01                                 F               0         Blade 1 X translation displacement, node 15, m
        161    6.161E+01                                 F               0         Blade 1 Y translation displacement, node 15, m
        162   -8.739E+01                                 F               0         Blade 1 Z translation displacement, node 15, m
        163    2.288E+01                                 F               0         Blade 1 X translation displacement, node 16, m
        164    6.537E+01                                 F               0         Blade 1 Y translation displacement, node 16, m
        165   -9.209E+01                                 F               0         Blade 1 Z translation displacement, node 16, m
        166    2.216E+01                                 F               0         Blade 1 X translation displacement, node 17, m
        167    6.913E+01                                 F               0         Blade 1 Y translation displacement, node 17, m
        168   -9.679E+01                                 F               0         Blade 1 Z translation displacement, node 17, m
        169    2.144E+01                                 F               0         Blade 1 X translation displacement, node 18, m
        170    7.289E+01                                 F               0         Blade 1 Y translation displacement, node 18, m
        171   -1.015E+02                                 F               0         Blade 1 Z translation displacement, node 18, m
        172    2.072E+01                                 F               0         Blade 1 X translation displacement, node 19, m
        173    7.665E+01                                 F               0         Blade 1 Y translation displacement, node 19, m
        174   -1.062E+02                                 F               0         Blade 1 Z translation displacement, node 19, m
        175    2.001E+01                                 F               0         Blade 1 X translation displacement, node 20, m
        176    8.041E+01                                 F               0         Blade 1 Y translation displacement, node 20, m
        177   -1.109E+02                                 F               0         Blade 1 Z translation displacement, node 20, m
        178    1.929E+01                                 F               0         Blade 1 X translation displacement, node 21, m
        179    8.417E+01                                 F               0         Blade 1 Y translation displacement, node 21, m
        180   -1.156E+02                                 F               0         Blade 1 Z translation displacement, node 21, m
        181    1.857E+01                                 F               0         Blade 1 X translation displacement, node 22, m
        182    8.793E+01                                 F               0         Blade 1 Y translation displacement, node 22, m
        183   -1.203E+02                                 F               0         Blade 1 Z translation displacement, node 22, m
        184    1.785E+01                                 F               0         Blade 1 X translation displacement, node 23, m
        185    9.169E+01                                 F               0         Blade 1 Y translation displacement, node 23, m
        186   -1.250E+02                                 F               0         Blade 1 Z translation displacement, node 23, m
        187    1.713E+01                                 F               0         Blade 1 X translation displacement, node 24, m
        188    9.545E+01                                 F               0         Blade 1 Y translation displacement, node 24, m
        189   -1.297E+02                                 F               0         Blade 1 Z translation displacement, node 24, m
        190    1.641E+01                                 F               0         Blade 1 X translation displacement, node 25, m
        191    9.921E+01                                 F               0         Blade 1 Y translation displacement, node 25, m
        192   -1.344E+02                                 F               0         Blade 1 Z translation displacement, node 25, m
        193    1.570E+01                                 F               0         Blade 1 X translation displacement, node 26, m
        194    1.030E+02                                 F               0         Blade 1 Y translation displacement, node 26, m
        195   -1.391E+02                                 F               0         Blade 1 Z translation displacement, node 26, m
        196    1.498E+01                                 F               0         Blade 1 X translation displacement, node 27, m
        197    1.067E+02                                 F               0         Blade 1 Y translation displacement, node 27, m
        198   -1.438E+02                                 F               0         Blade 1 Z translation displacement, node 27, m
        199    1.437E+01                                 F               0         Blade 1 X translation displacement, node 28, m
        200    1.099E+02                                 F               0         Blade 1 Y translation displacement, node 28, m
        201   -1.477E+02                                 F               0         Blade 1 Z translation displacement, node 28, m
        202    9.677E-01,  1.296E-01,  2.161E-01         F               0         Blade 1 X orientation angle, node 1, rad
        203    2.386E-01, -1.951E-01, -9.513E-01         F               0         Blade 1 Y orientation angle, node 1, rad
        204   -8.117E-02,  9.722E-01, -2.197E-01         F               0         Blade 1 Z orientation angle, node 1, rad
        205    9.677E-01,  1.296E-01,  2.161E-01         F               0         Blade 1 X orientation angle, node 2, rad
        206    2.386E-01, -1.951E-01, -9.513E-01         F               0         Blade 1 Y orientation angle, node 2, rad
        207   -8.117E-02,  9.722E-01, -2.197E-01         F               0         Blade 1 Z orientation angle, node 2, rad
        208    9.967E-01,  7.971E-02, -1.551E-02         F               0         Blade 1 X orientation angle, node 3, rad
        209    2.440E-03, -2.203E-01, -9.754E-01         F               0         Blade 1 Y orientation angle, node 3, rad
        210   -8.117E-02,  9.722E-01, -2.197E-01         F               0         Blade 1 Z orientation angle, node 3, rad
        211    9.959E-01,  7.034E-02, -5.668E-02         F               0         Blade 1 X orientation angle, node 4, rad
        212   -3.965E-02, -2.234E-01, -9.739E-01         F               0         Blade 1 Y orientation angle, node 4, rad
        213   -8.117E-02,  9.722E-01, -2.197E-01         F               0         Blade 1 Z orientation angle, node 4, rad
        214    9.940E-01,  6.289E-02, -8.894E-02         F               0         Blade 1 X orientation angle, node 5, rad
        215   -7.264E-02, -2.257E-01, -9.715E-01         F               0         Blade 1 Y orientation angle, node 5, rad
        216   -8.117E-02,  9.722E-01, -2.197E-01         F               0         Blade 1 Z orientation angle, node 5, rad
        217    9.918E-01,  5.688E-02, -1.147E-01         F               0         Blade 1 X orientation angle, node 6, rad
        218   -9.899E-02, -2.272E-01, -9.688E-01         F               0         Blade 1 Y orientation angle, node 6, rad
        219   -8.117E-02,  9.722E-01, -2.197E-01         F               0         Blade 1 Z orientation angle, node 6, rad
        220    9.894E-01,  5.191E-02, -1.358E-01         F               0         Blade 1 X orientation angle, node 7, rad
        221   -1.206E-01, -2.284E-01, -9.661E-01         F               0         Blade 1 Y orientation angle, node 7, rad
        222   -8.117E-02,  9.722E-01, -2.197E-01         F               0         Blade 1 Z orientation angle, node 7, rad
        223    9.870E-01,  4.776E-02, -1.533E-01         F               0         Blade 1 X orientation angle, node 8, rad
        224   -1.385E-01, -2.293E-01, -9.634E-01         F               0         Blade 1 Y orientation angle, node 8, rad
        225   -8.117E-02,  9.722E-01, -2.197E-01         F               0         Blade 1 Z orientation angle, node 8, rad
        226    9.848E-01,  4.423E-02, -1.681E-01         F               0         Blade 1 X orientation angle, node 9, rad
        227   -1.537E-01, -2.300E-01, -9.610E-01         F               0         Blade 1 Y orientation angle, node 9, rad