
Linearized model: Predictions were generated on 06-Feb-2024 at 08:44:08 using OpenFAST, compiled as a 64-bit application using single precision at commit v3.5.1
 linked with  NWTC Subroutine Library; ElastoDyn; InflowWind; AeroDyn; ServoDyn; HydroDyn; MAP++ (<1.20.10>, <Oct-20-2023>)

Description from the FAST input file: CCT-9 Campign 4 model. Input files to be run with OpenFAST 3.5.0. GitHub branch from Lu Wang (https://github.com/luwang00/openfast/tree/dev) compiled on March 7, 2023.

Simulation information:
   Simulation time:                  2504.0000 s
   Rotor Speed:                         0.8853 rad/s
   Azimuth:                             0.4103 rad
   Wind Speed:                         10.0000 m/s
   Number of continuous states:         0
   Number of discrete states:           0
   Number of constraint states:         0
   Number of inputs:                 1746
   Number of outputs:                   4
   Jacobians included in this file?    No

Order of inputs:
     Column   Operating Point                     Rotating Frame? Derivative Order Description
   ---------- ---------------                     --------------- ---------------- -----------
          1    1.391E+01                                 F               0         Tower X translation displacement, node 1, m
          2    7.435E-02                                 F               0         Tower Y translation displacement, node 1, m
          3   -1.832E-01                                 F               0         Tower Z translation displacement, node 1, m
          4    1.488E+01                                 F               0         Tower X translation displacement, node 2, m
          5    1.079E-01                                 F               0         Tower Y translation displacement, node 2, m
          6   -2.218E-01                                 F               0         Tower Z translation displacement, node 2, m
          7    1.588E+01                                 F               0         Tower X translation displacement, node 3, m
          8    1.420E-01                                 F               0         Tower Y translation displacement, node 3, m
          9   -2.620E-01                                 F               0         Tower Z translation displacement, node 3, m
         10    1.689E+01                                 F               0         Tower X translation displacement, node 4, m
         11    1.766E-01                                 F               0         Tower Y translation displacement, node 4, m
         12   -3.034E-01                                 F               0         Tower Z translation displacement, node 4, m
         13    1.791E+01                                 F               0         Tower X translation displacement, node 5, m
         14    2.116E-01                                 F               0         Tower Y translation displacement, node 5, m
         15   -3.459E-01                                 F               0         Tower Z translation displacement, node 5, m
         16    1.894E+01                                 F               0         Tower X translation displacement, node 6, m
         17    2.469E-01                                 F               0         Tower Y translation displacement, node 6, m
         18   -3.892E-01                                 F               0         Tower Z translation displacement, node 6, m
         19    1.998E+01                                 F               0         Tower X translation displacement, node 7, m
         20    2.826E-01                                 F               0         Tower Y translation displacement, node 7, m
         21   -4.331E-01                                 F               0         Tower Z translation displacement, node 7, m
         22    2.103E+01                                 F               0         Tower X translation displacement, node 8, m
         23    3.184E-01                                 F               0         Tower Y translation displacement, node 8, m
         24   -4.775E-01                                 F               0         Tower Z translation displacement, node 8, m
         25    2.208E+01                                 F               0         Tower X translation displacement, node 9, m
         26    3.545E-01                                 F               0         Tower Y translation displacement, node 9, m
         27   -5.223E-01                                 F               0         Tower Z translation displacement, node 9, m
         28    2.313E+01                                 F               0         Tower X translation displacement, node 10, m
         29    3.906E-01                                 F               0         Tower Y translation displacement, node 10, m
         30   -5.672E-01                                 F               0         Tower Z translation displacement, node 10, m
         31    2.419E+01                                 F               0         Tower X translation displacement, node 11, m
         32    4.269E-01                                 F               0         Tower Y translation displacement, node 11, m
         33   -6.123E-01                                 F               0         Tower Z translation displacement, node 11, m
         34    9.969E-01,  1.330E-03, -7.828E-02         F               0         Tower X orientation angle, node 1, rad
         35   -1.537E-03,  1.000E+00, -2.581E-03         F               0         Tower Y orientation angle, node 1, rad
         36    7.828E-02,  2.693E-03,  9.969E-01         F               0         Tower Z orientation angle, node 1, rad
         37    9.968E-01,  1.326E-03, -7.982E-02         F               0         Tower X orientation angle, node 2, rad
         38   -1.540E-03,  1.000E+00, -2.624E-03         F               0         Tower Y orientation angle, node 2, rad
         39    7.981E-02,  2.739E-03,  9.968E-01         F               0         Tower Z orientation angle, node 2, rad
         40    9.967E-01,  1.322E-03, -8.116E-02         F               0         Tower X orientation angle, node 3, rad
         41   -1.543E-03,  1.000E+00, -2.663E-03         F               0         Tower Y orientation angle, node 3, rad
         42    8.115E-02,  2.780E-03,  9.967E-01         F               0         Tower Z orientation angle, node 3, rad
         43    9.966E-01,  1.319E-03, -8.228E-02         F               0         Tower X orientation angle, node 4, rad
         44   -1.546E-03,  1.000E+00, -2.698E-03         F               0         Tower Y orientation angle, node 4, rad
         45    8.227E-02,  2.816E-03,  9.966E-01         F               0         Tower Z orientation angle, node 4, rad
         46    9.965E-01,  1.316E-03, -8.319E-02         F               0         Tower X orientation angle, node 5, rad
         47   -1.548E-03,  1.000E+00, -2.728E-03         F               0         Tower Y orientation angle, node 5, rad
         48    8.319E-02,  2.847E-03,  9.965E-01         F               0         Tower Z orientation angle, node 5, rad
         49    9.965E-01,  1.314E-03, -8.392E-02         F               0         Tower X orientation angle, node 6, rad
         50   -1.551E-03,  1.000E+00, -2.753E-03         F               0         Tower Y orientation angle, node 6, rad
         51    8.391E-02,  2.873E-03,  9.965E-01         F               0         Tower Z orientation angle, node 6, rad
         52    9.964E-01,  1.313E-03, -8.445E-02         F               0         Tower X orientation angle, node 7, rad
         53   -1.552E-03,  1.000E+00, -2.773E-03         F               0         Tower Y orientation angle, node 7, rad
         54    8.445E-02,  2.894E-03,  9.964E-01         F               0         Tower Z orientation angle, node 7, rad
         55    9.964E-01,  1.311E-03, -8.484E-02         F               0         Tower X orientation angle, node 8, rad
         56   -1.554E-03,  1.000E+00, -2.789E-03         F               0         Tower Y orientation angle, node 8, rad
         57    8.483E-02,  2.911E-03,  9.964E-01         F               0         Tower Z orientation angle, node 8, rad
         58    9.964E-01,  1.311E-03, -8.510E-02         F               0         Tower X orientation angle, node 9, rad
         59   -1.555E-03,  1.000E+00, -2.801E-03         F               0         Tower Y orientation angle, node 9, rad
         60    8.509E-02,  2.923E-03,  9.964E-01         F               0         Tower Z orientation angle, node 9, rad
         61    9.964E-01,  1.310E-03, -8.525E-02         F               0         Tower X orientation angle, node 10, rad
         62   -1.555E-03,  1.000E+00, -2.809E-03         F               0         Tower Y orientation angle, node 10, rad
         63    8.525E-02,  2.931E-03,  9.964E-01         F               0         Tower Z orientation angle, node 10, rad
         64    9.964E-01,  1.310E-03, -8.533E-02         F               0         Tower X orientation angle, node 11, rad
         65   -1.556E-03,  1.000E+00, -2.813E-03         F               0         Tower Y orientation angle, node 11, rad
         66    8.532E-02,  2.935E-03,  9.963E-01         F               0         Tower Z orientation angle, node 11, rad
         67    6.159E-05                                 F               0         Tower X translation velocity, node 1, m/s
         68    7.112E-03                                 F               0         Tower Y translation velocity, node 1, m/s
         69    3.241E-04                                 F               0         Tower Z translation velocity, node 1, m/s
         70    7.040E-05                                 F               0         Tower X translation velocity, node 2, m/s
         71    1.139E-02                                 F               0         Tower Y translation velocity, node 2, m/s
         72    3.118E-04                                 F               0         Tower Z translation velocity, node 2, m/s
         73    9.160E-05                                 F               0         Tower X translation velocity, node 3, m/s
         74    1.566E-02                                 F               0         Tower Y translation velocity, node 3, m/s
         75    2.983E-04                                 F               0         Tower Z translation velocity, node 3, m/s
         76    1.234E-04                                 F               0         Tower X translation velocity, node 4, m/s
         77    1.993E-02                                 F               0         Tower Y translation velocity, node 4, m/s
         78    2.837E-04                                 F               0         Tower Z translation velocity, node 4, m/s
         79    1.651E-04                                 F               0         Tower X translation velocity, node 5, m/s
         80    2.419E-02                                 F               0         Tower Y translation velocity, node 5, m/s
         81    2.681E-04                                 F               0         Tower Z translation velocity, node 5, m/s
         82    2.161E-04                                 F               0         Tower X translation velocity, node 6, m/s
         83    2.845E-02                                 F               0         Tower Y translation velocity, node 6, m/s
         84    2.516E-04                                 F               0         Tower Z translation velocity, node 6, m/s
         85    2.746E-04                                 F               0         Tower X translation velocity, node 7, m/s
         86    3.270E-02                                 F               0         Tower Y translation velocity, node 7, m/s
         87    2.343E-04                                 F               0         Tower Z translation velocity, node 7, m/s
         88    3.404E-04                                 F               0         Tower X translation velocity, node 8, m/s
         89    3.695E-02                                 F               0         Tower Y translation velocity, node 8, m/s
         90    2.163E-04                                 F               0         Tower Z translation velocity, node 8, m/s
         91    4.122E-04                                 F               0         Tower X translation velocity, node 9, m/s
         92    4.119E-02                                 F               0         Tower Y translation velocity, node 9, m/s
         93    1.978E-04                                 F               0         Tower Z translation velocity, node 9, m/s
         94    4.885E-04                                 F               0         Tower X translation velocity, node 10, m/s
         95    4.544E-02                                 F               0         Tower Y translation velocity, node 10, m/s
         96    1.788E-04                                 F               0         Tower Z translation velocity, node 10, m/s
         97    5.676E-04                                 F               0         Tower X translation velocity, node 11, m/s
         98    4.967E-02                                 F               0         Tower Y translation velocity, node 11, m/s
         99    1.595E-04                                 F               0         Tower Z translation velocity, node 11, m/s
        100    2.489E+01                                 F               0         Hub X translation displacement, node 1, m
        101    4.358E-01                                 F               0         Hub Y translation displacement, node 1, m
        102    2.806E-01                                 F               0         Hub Z translation displacement, node 1, m
        103    9.820E-01,  9.959E-04, -1.890E-01         F               0         Hub X orientation angle, node 1, rad
        104    7.396E-02,  9.182E-01,  3.891E-01         F               0         Hub Y orientation angle, node 1, rad
        105    1.739E-01, -3.961E-01,  9.016E-01         F               0         Hub Z orientation angle, node 1, rad
        106    8.690E-01                                 F               0         Hub X rotation velocity, node 1, rad/s
        107    8.882E-04                                 F               0         Hub Y rotation velocity, node 1, rad/s
        108   -1.673E-01                                 F               0         Hub Z rotation velocity, node 1, rad/s
        109    9.793E-01, -2.624E-02, -2.005E-01         F               0         Blade root 1 X orientation angle, node 1, rad
        110    1.031E-01,  9.178E-01,  3.833E-01         F               0         Blade root 1 Y orientation angle, node 1, rad
        111    1.739E-01, -3.961E-01,  9.016E-01         F               0         Blade root 1 Z orientation angle, node 1, rad
        112    9.782E-01,  2.479E-02, -2.063E-01         F               0         Blade root 2 X orientation angle, node 1, rad
        113    1.427E-01, -8.017E-01,  5.804E-01         F               0         Blade root 2 Y orientation angle, node 1, rad
        114   -1.510E-01, -5.972E-01, -7.878E-01         F               0         Blade root 2 Z orientation angle, node 1, rad
        115    9.871E-01,  4.440E-03, -1.600E-01         F               0         Blade root 3 X orientation angle, node 1, rad
        116   -1.584E-01, -1.160E-01, -9.805E-01         F               0         Blade root 3 Y orientation angle, node 1, rad
        117   -2.292E-02,  9.932E-01, -1.138E-01         F               0         Blade root 3 Z orientation angle, node 1, rad
        118    2.528E+01                                 F               0         Blade 1 X translation displacement, node 1, m
        119   -1.758E+00                                 F               0         Blade 1 Y translation displacement, node 1, m
        120   -2.342E-01                                 F               0         Blade 1 Z translation displacement, node 1, m
        121    2.537E+01                                 F               0         Blade 1 X translation displacement, node 2, m
        122   -2.287E+00                                 F               0         Blade 1 Y translation displacement, node 2, m
        123   -3.583E-01                                 F               0         Blade 1 Z translation displacement, node 2, m
        124    2.663E+01                                 F               0         Blade 1 X translation displacement, node 3, m
        125   -9.477E+00                                 F               0         Blade 1 Y translation displacement, node 3, m
        126   -2.045E+00                                 F               0         Blade 1 Z translation displacement, node 3, m
        127    2.690E+01                                 F               0         Blade 1 X translation displacement, node 4, m
        128   -1.101E+01                                 F               0         Blade 1 Y translation displacement, node 4, m
        129   -2.404E+00                                 F               0         Blade 1 Z translation displacement, node 4, m
        130    2.717E+01                                 F               0         Blade 1 X translation displacement, node 5, m
        131   -1.254E+01                                 F               0         Blade 1 Y translation displacement, node 5, m
        132   -2.764E+00                                 F               0         Blade 1 Z translation displacement, node 5, m
        133    2.744E+01                                 F               0         Blade 1 X translation displacement, node 6, m
        134   -1.407E+01                                 F               0         Blade 1 Y translation displacement, node 6, m
        135   -3.123E+00                                 F               0         Blade 1 Z translation displacement, node 6, m
        136    2.771E+01                                 F               0         Blade 1 X translation displacement, node 7, m
        137   -1.560E+01                                 F               0         Blade 1 Y translation displacement, node 7, m
        138   -3.483E+00                                 F               0         Blade 1 Z translation displacement, node 7, m
        139    2.797E+01                                 F               0         Blade 1 X translation displacement, node 8, m
        140   -1.714E+01                                 F               0         Blade 1 Y translation displacement, node 8, m
        141   -3.842E+00                                 F               0         Blade 1 Z translation displacement, node 8, m
        142    2.824E+01                                 F               0         Blade 1 X translation displacement, node 9, m
        143   -1.867E+01                                 F               0         Blade 1 Y translation displacement, node 9, m
        144   -4.201E+00                                 F               0         Blade 1 Z translation displacement, node 9, m
        145    2.851E+01                                 F               0         Blade 1 X translation displacement, node 10, m
        146   -2.020E+01                                 F               0         Blade 1 Y translation displacement, node 10, m
        147   -4.561E+00                                 F               0         Blade 1 Z translation displacement, node 10, m
        148    2.878E+01                                 F               0         Blade 1 X translation displacement, node 11, m
        149   -2.173E+01                                 F               0         Blade 1 Y translation displacement, node 11, m
        150   -4.920E+00                                 F               0         Blade 1 Z translation displacement, node 11, m
        151    2.905E+01                                 F               0         Blade 1 X translation displacement, node 12, m
        152   -2.326E+01                                 F               0         Blade 1 Y translation displacement, node 12, m
        153   -5.280E+00                                 F               0         Blade 1 Z translation displacement, node 12, m
        154    2.932E+01                                 F               0         Blade 1 X translation displacement, node 13, m
        155   -2.480E+01                                 F               0         Blade 1 Y translation displacement, node 13, m
        156   -5.639E+00                                 F               0         Blade 1 Z translation displacement, node 13, m
        157    2.958E+01                                 F               0         Blade 1 X translation displacement, node 14, m
        158   -2.633E+01                                 F               0         Blade 1 Y translation displacement, node 14, m
        159   -5.998E+00                                 F               0         Blade 1 Z translation displacement, node 14, m
        160    2.985E+01                                 F               0         Blade 1 X translation displacement, node 15, m
        161   -2.786E+01                                 F               0         Blade 1 Y translation displacement, node 15, m
        162   -6.358E+00                                 F               0         Blade 1 Z translation displacement, node 15, m
        163    3.012E+01                                 F               0         Blade 1 X translation displacement, node 16, m
        164   -2.939E+01                                 F               0         Blade 1 Y translation displacement, node 16, m
        165   -6.717E+00                                 F               0         Blade 1 Z translation displacement, node 16, m
        166    3.039E+01                                 F               0         Blade 1 X translation displacement, node 17, m
        167   -3.092E+01                                 F               0         Blade 1 Y translation displacement, node 17, m
        168   -7.077E+00                                 F               0         Blade 1 Z translation displacement, node 17, m
        169    3.066E+01                                 F               0         Blade 1 X translation displacement, node 18, m
        170   -3.245E+01                                 F               0         Blade 1 Y translation displacement, node 18, m
        171   -7.436E+00                                 F               0         Blade 1 Z translation displacement, node 18, m
        172    3.093E+01                                 F               0         Blade 1 X translation displacement, node 19, m
        173   -3.399E+01                                 F               0         Blade 1 Y translation displacement, node 19, m
        174   -7.795E+00                                 F               0         Blade 1 Z translation displacement, node 19, m
        175    3.120E+01                                 F               0         Blade 1 X translation displacement, node 20, m
        176   -3.552E+01                                 F               0         Blade 1 Y translation displacement, node 20, m
        177   -8.155E+00                                 F               0         Blade 1 Z translation displacement, node 20, m
        178    3.146E+01                                 F               0         Blade 1 X translation displacement, node 21, m
        179   -3.705E+01                                 F               0         Blade 1 Y translation displacement, node 21, m
        180   -8.514E+00                                 F               0         Blade 1 Z translation displacement, node 21, m
        181    3.173E+01                                 F               0         Blade 1 X translation displacement, node 22, m
        182   -3.858E+01                                 F               0         Blade 1 Y translation displacement, node 22, m
        183   -8.874E+00                                 F               0         Blade 1 Z translation displacement, node 22, m
        184    3.200E+01                                 F               0         Blade 1 X translation displacement, node 23, m
        185   -4.011E+01                                 F               0         Blade 1 Y translation displacement, node 23, m
        186   -9.233E+00                                 F               0         Blade 1 Z translation displacement, node 23, m
        187    3.227E+01                                 F               0         Blade 1 X translation displacement, node 24, m
        188   -4.165E+01                                 F               0         Blade 1 Y translation displacement, node 24, m
        189   -9.592E+00                                 F               0         Blade 1 Z translation displacement, node 24, m
        190    3.254E+01                                 F               0         Blade 1 X translation displacement, node 25, m
        191   -4.318E+01                                 F               0         Blade 1 Y translation displacement, node 25, m
        192   -9.952E+00                                 F               0         Blade 1 Z translation displacement, node 25, m
        193    3.281E+01                                 F               0         Blade 1 X translation displacement, node 26, m
        194   -4.471E+01                                 F               0         Blade 1 Y translation displacement, node 26, m
        195   -1.031E+01                                 F               0         Blade 1 Z translation displacement, node 26, m
        196    3.307E+01                                 F               0         Blade 1 X translation displacement, node 27, m
        197   -4.624E+01                                 F               0         Blade 1 Y translation displacement, node 27, m
        198   -1.067E+01                                 F               0         Blade 1 Z translation displacement, node 27, m
        199    3.330E+01                                 F               0         Blade 1 X translation displacement, node 28, m
        200   -4.754E+01                                 F               0         Blade 1 Y translation displacement, node 28, m
        201   -1.098E+01                                 F               0         Blade 1 Z translation displacement, node 28, m
        202    8.246E-01, -4.419E-01, -3.532E-01         F               0         Blade 1 X orientation angle, node 1, rad
        203    5.383E-01,  8.049E-01,  2.497E-01         F               0         Blade 1 Y orientation angle, node 1, rad
        204    1.739E-01, -3.961E-01,  9.016E-01         F               0         Blade 1 Z orientation angle, node 1, rad
        205    8.246E-01, -4.419E-01, -3.532E-01         F               0         Blade 1 X orientation angle, node 2, rad
        206    5.383E-01,  8.049E-01,  2.497E-01         F               0         Blade 1 Y orientation angle, node 2, rad
        207    1.739E-01, -3.961E-01,  9.016E-01         F               0         Blade 1 Z orientation angle, node 2, rad
        208    9.287E-01, -2.385E-01, -2.840E-01         F               0         Blade 1 X orientation angle, node 3, rad
        209    3.275E-01,  8.867E-01,  3.263E-01         F               0         Blade 1 Y orientation angle, node 3, rad
        210    1.739E-01, -3.961E-01,  9.016E-01         F               0         Blade 1 Z orientation angle, node 3, rad
        211    9.417E-01, -2.009E-01, -2.699E-01         F               0         Blade 1 X orientation angle, node 4, rad
        212    2.880E-01,  8.960E-01,  3.380E-01         F               0         Blade 1 Y orientation angle, node 4, rad
        213    1.739E-01, -3.961E-01,  9.016E-01         F               0         Blade 1 Z orientation angle, node 4, rad
        214    9.507E-01, -1.711E-01, -2.586E-01         F               0         Blade 1 X orientation angle, node 5, rad
        215    2.567E-01,  9.021E-01,  3.468E-01         F               0         Blade 1 Y orientation angle, node 5, rad
        216    1.739E-01, -3.961E-01,  9.016E-01         F               0         Blade 1 Z orientation angle, node 5, rad
        217    9.572E-01, -1.471E-01, -2.493E-01         F               0         Blade 1 X orientation angle, node 6, rad
        218    2.313E-01,  9.064E-01,  3.535E-01         F               0         Blade 1 Y orientation angle, node 6, rad
        219    1.739E-01, -3.961E-01,  9.016E-01         F               0         Blade 1 Z orientation angle, node 6, rad
        220    9.620E-01, -1.273E-01, -2.415E-01         F               0         Blade 1 X orientation angle, node 7, rad
        221    2.104E-01,  9.094E-01,  3.589E-01         F               0         Blade 1 Y orientation angle, node 7, rad
        222    1.739E-01, -3.961E-01,  9.016E-01         F               0         Blade 1 Z orientation angle, node 7, rad
        223    9.657E-01, -1.108E-01, -2.350E-01         F               0         Blade 1 X orientation angle, node 8, rad
        224    1.929E-01,  9.115E-01,  3.632E-01         F               0         Blade 1 Y orientation angle, node 8, rad
        225    1.739E-01, -3.961E-01,  9.016E-01         F               0         Blade 1 Z orientation angle, node 8, rad
        226    9.685E-01, -9.674E-02, -2.293E-01         F               0         Blade 1 X orientation angle, node 9, rad
        227    1.781E-01,  9.131E-01,  3.668E-01         F               0         Blade 1 Y orientation angle, node 9, rad