
Linearized model: Predictions were generated on 12-Jan-2024 at 09:28:28 using OpenFAST, compiled as a 64-bit application using single precision at commit v3.5.1
 linked with  NWTC Subroutine Library; ElastoDyn; InflowWind; AeroDyn; ServoDyn; HydroDyn; MAP++ (<1.20.10>, <Oct-20-2023>)

Description from the FAST input file: CCT-9 Campign 4 model. Input files to be run with OpenFAST 3.5.0. GitHub branch from Lu Wang (https://github.com/luwang00/openfast/tree/dev) compiled on March 7, 2023.

Simulation information:
   Simulation time:                   507.1750 s
   Rotor Speed:                         0.8780 rad/s
   Azimuth:                             3.8674 rad
   Wind Speed:                         10.0000 m/s
   Number of continuous states:        22
   Number of discrete states:           0
   Number of constraint states:         0
   Number of inputs:                 1890
   Number of outputs:                  38
   Jacobians included in this file?    No

Order of continuous states:
   Row/Column Operating Point                     Rotating Frame? Derivative Order Description
   ---------- ---------------                     --------------- ---------------- -----------
          1    8.824E+00                                 F               2         Platform horizontal surge translation DOF (internal DOF index = DOF_Sg), m
          2   -3.582E-01                                 F               2         Platform horizontal sway translation DOF (internal DOF index = DOF_Sw), m
          3   -1.623E-01                                 F               2         Platform vertical heave translation DOF (internal DOF index = DOF_Hv), m
          4    4.747E-02                                 F               2         Platform roll tilt rotation DOF (internal DOF index = DOF_R), rad
          5    1.188E-01                                 F               2         Platform pitch tilt rotation DOF (internal DOF index = DOF_P), rad
          6    7.414E-03                                 F               2         Platform yaw rotation DOF (internal DOF index = DOF_Y), rad
          7    7.524E-01                                 F               2         1st tower fore-aft bending mode DOF (internal DOF index = DOF_TFA1), m
          8    1.903E-01                                 F               2         1st tower side-to-side bending mode DOF (internal DOF index = DOF_TSS1), m
          9    1.529E-03                                 F               2         2nd tower fore-aft bending mode DOF (internal DOF index = DOF_TFA2), m
         10    8.321E-05                                 F               2         2nd tower side-to-side bending mode DOF (internal DOF index = DOF_TSS2), m
         11    2.297E+00                                 F               2         Variable speed generator DOF (internal DOF index = DOF_GeAz), rad
         12   -4.784E-03                                 F               2         First time derivative of Platform horizontal surge translation DOF (internal DOF index = DOF_Sg), m/s
         13    3.694E-04                                 F               2         First time derivative of Platform horizontal sway translation DOF (internal DOF index = DOF_Sw), m/s
         14    4.774E-03                                 F               2         First time derivative of Platform vertical heave translation DOF (internal DOF index = DOF_Hv), m/s
         15   -3.342E-04                                 F               2         First time derivative of Platform roll tilt rotation DOF (internal DOF index = DOF_R), rad/s
         16   -2.170E-05                                 F               2         First time derivative of Platform pitch tilt rotation DOF (internal DOF index = DOF_P), rad/s
         17    1.441E-04                                 F               2         First time derivative of Platform yaw rotation DOF (internal DOF index = DOF_Y), rad/s
         18    2.691E-03                                 F               2         First time derivative of 1st tower fore-aft bending mode DOF (internal DOF index = DOF_TFA1), m/s
         19   -5.738E-03                                 F               2         First time derivative of 1st tower side-to-side bending mode DOF (internal DOF index = DOF_TSS1), m/s
         20    3.060E-07                                 F               2         First time derivative of 2nd tower fore-aft bending mode DOF (internal DOF index = DOF_TFA2), m/s
         21    4.872E-07                                 F               2         First time derivative of 2nd tower side-to-side bending mode DOF (internal DOF index = DOF_TSS2), m/s
         22    8.780E-01                                 F               2         First time derivative of Variable speed generator DOF (internal DOF index = DOF_GeAz), rad/s

Order of continuous state derivatives:
   Row/Column Operating Point                     Rotating Frame? Derivative Order Description
   ---------- ---------------                     --------------- ---------------- -----------
          1   -4.784E-03                                 F               2         First time derivative of Platform horizontal surge translation DOF (internal DOF index = DOF_Sg), m/s
          2    3.694E-04                                 F               2         First time derivative of Platform horizontal sway translation DOF (internal DOF index = DOF_Sw), m/s
          3    4.774E-03                                 F               2         First time derivative of Platform vertical heave translation DOF (internal DOF index = DOF_Hv), m/s
          4   -3.342E-04                                 F               2         First time derivative of Platform roll tilt rotation DOF (internal DOF index = DOF_R), rad/s
          5   -2.170E-05                                 F               2         First time derivative of Platform pitch tilt rotation DOF (internal DOF index = DOF_P), rad/s
          6    1.441E-04                                 F               2         First time derivative of Platform yaw rotation DOF (internal DOF index = DOF_Y), rad/s
          7    2.691E-03                                 F               2         First time derivative of 1st tower fore-aft bending mode DOF (internal DOF index = DOF_TFA1), m/s
          8   -5.738E-03                                 F               2         First time derivative of 1st tower side-to-side bending mode DOF (internal DOF index = DOF_TSS1), m/s
          9    3.060E-07                                 F               2         First time derivative of 2nd tower fore-aft bending mode DOF (internal DOF index = DOF_TFA2), m/s
         10    4.872E-07                                 F               2         First time derivative of 2nd tower side-to-side bending mode DOF (internal DOF index = DOF_TSS2), m/s
         11    8.780E-01                                 F               2         First time derivative of Variable speed generator DOF (internal DOF index = DOF_GeAz), rad/s
         12   -4.944E-04                                 F               2         First time derivative of First time derivative of Platform horizontal surge translation DOF (internal DOF index = DOF_Sg), m/s/s
         13    1.061E-04                                 F               2         First time derivative of First time derivative of Platform horizontal sway translation DOF (internal DOF index = DOF_Sw), m/s/s
         14   -3.931E-04                                 F               2         First time derivative of First time derivative of Platform vertical heave translation DOF (internal DOF index = DOF_Hv), m/s/s
         15   -1.263E-04                                 F               2         First time derivative of First time derivative of Platform roll tilt rotation DOF (internal DOF index = DOF_R), rad/s/s
         16   -2.117E-05                                 F               2         First time derivative of First time derivative of Platform pitch tilt rotation DOF (internal DOF index = DOF_P), rad/s/s
         17    1.892E-05                                 F               2         First time derivative of First time derivative of Platform yaw rotation DOF (internal DOF index = DOF_Y), rad/s/s
         18    4.774E-03                                 F               2         First time derivative of First time derivative of 1st tower fore-aft bending mode DOF (internal DOF index = DOF_TFA1), m/s/s
         19    6.804E-03                                 F               2         First time derivative of First time derivative of 1st tower side-to-side bending mode DOF (internal DOF index = DOF_TSS1), m/s/s
         20    5.456E-06                                 F               2         First time derivative of First time derivative of 2nd tower fore-aft bending mode DOF (internal DOF index = DOF_TFA2), m/s/s
         21    9.573E-07                                 F               2         First time derivative of First time derivative of 2nd tower side-to-side bending mode DOF (internal DOF index = DOF_TSS2), m/s/s
         22    1.141E-04                                 F               2         First time derivative of First time derivative of Variable speed generator DOF (internal DOF index = DOF_GeAz), rad/s/s

Order of inputs:
     Column   Operating Point                     Rotating Frame? Derivative Order Description
   ---------- ---------------                     --------------- ---------------- -----------
          1    5.971E+01                                 F               0         Blade 1 X force, node 1, N
          2   -3.381E+01                                 F               0         Blade 1 Y force, node 1, N
          3   -4.905E+01                                 F               0         Blade 1 Z force, node 1, N
          4    2.817E+02                                 F               0         Blade 1 X force, node 2, N
          5   -6.519E+01                                 F               0         Blade 1 Y force, node 2, N
          6   -1.365E+02                                 F               0         Blade 1 Z force, node 2, N
          7    4.008E+02                                 F               0         Blade 1 X force, node 3, N
          8   -2.006E+01                                 F               0         Blade 1 Y force, node 3, N
          9   -1.211E+02                                 F               0         Blade 1 Z force, node 3, N
         10    5.500E+02                                 F               0         Blade 1 X force, node 4, N
         11    1.769E+01                                 F               0         Blade 1 Y force, node 4, N
         12   -1.206E+02                                 F               0         Blade 1 Z force, node 4, N
         13    6.992E+02                                 F               0         Blade 1 X force, node 5, N
         14    5.543E+01                                 F               0         Blade 1 Y force, node 5, N
         15   -1.202E+02                                 F               0         Blade 1 Z force, node 5, N
         16    8.485E+02                                 F               0         Blade 1 X force, node 6, N
         17    9.318E+01                                 F               0         Blade 1 Y force, node 6, N
         18   -1.198E+02                                 F               0         Blade 1 Z force, node 6, N
         19    9.977E+02                                 F               0         Blade 1 X force, node 7, N
         20    1.309E+02                                 F               0         Blade 1 Y force, node 7, N
         21   -1.194E+02                                 F               0         Blade 1 Z force, node 7, N
         22    1.147E+03                                 F               0         Blade 1 X force, node 8, N
         23    1.687E+02                                 F               0         Blade 1 Y force, node 8, N
         24   -1.190E+02                                 F               0         Blade 1 Z force, node 8, N
         25    1.296E+03                                 F               0         Blade 1 X force, node 9, N
         26    2.064E+02                                 F               0         Blade 1 Y force, node 9, N
         27   -1.185E+02                                 F               0         Blade 1 Z force, node 9, N
         28    1.445E+03                                 F               0         Blade 1 X force, node 10, N
         29    2.442E+02                                 F               0         Blade 1 Y force, node 10, N
         30   -1.181E+02                                 F               0         Blade 1 Z force, node 10, N
         31    1.595E+03                                 F               0         Blade 1 X force, node 11, N
         32    2.819E+02                                 F               0         Blade 1 Y force, node 11, N
         33   -1.177E+02                                 F               0         Blade 1 Z force, node 11, N
         34    1.744E+03                                 F               0         Blade 1 X force, node 12, N
         35    3.196E+02                                 F               0         Blade 1 Y force, node 12, N
         36   -1.173E+02                                 F               0         Blade 1 Z force, node 12, N
         37    1.893E+03                                 F               0         Blade 1 X force, node 13, N
         38    3.574E+02                                 F               0         Blade 1 Y force, node 13, N
         39   -1.169E+02                                 F               0         Blade 1 Z force, node 13, N
         40    2.042E+03                                 F               0         Blade 1 X force, node 14, N
         41    3.951E+02                                 F               0         Blade 1 Y force, node 14, N
         42   -1.164E+02                                 F               0         Blade 1 Z force, node 14, N
         43    2.192E+03                                 F               0         Blade 1 X force, node 15, N
         44    4.329E+02                                 F               0         Blade 1 Y force, node 15, N
         45   -1.160E+02                                 F               0         Blade 1 Z force, node 15, N
         46    2.341E+03                                 F               0         Blade 1 X force, node 16, N
         47    4.706E+02                                 F               0         Blade 1 Y force, node 16, N
         48   -1.156E+02                                 F               0         Blade 1 Z force, node 16, N
         49    2.888E+03                                 F               0         Blade 1 X force, node 17, N
         50    5.873E+02                                 F               0         Blade 1 Y force, node 17, N
         51   -1.358E+02                                 F               0         Blade 1 Z force, node 17, N
         52    2.209E+03                                 F               0         Blade 1 X force, node 18, N
         53    4.348E+02                                 F               0         Blade 1 Y force, node 18, N
         54   -1.184E+02                                 F               0         Blade 1 Z force, node 18, N
         55    2.713E+03                                 F               0         Blade 1 X force, node 19, N
         56    5.106E+02                                 F               0         Blade 1 Y force, node 19, N
         57   -1.692E+02                                 F               0         Blade 1 Z force, node 19, N
         58    2.316E+03                                 F               0         Blade 1 X force, node 20, N
         59    4.173E+02                                 F               0         Blade 1 Y force, node 20, N
         60   -1.630E+02                                 F               0         Blade 1 Z force, node 20, N
         61    3.425E+03                                 F               0         Blade 1 X force, node 21, N
         62    5.867E+02                                 F               0         Blade 1 Y force, node 21, N
         63   -2.716E+02                                 F               0         Blade 1 Z force, node 21, N
         64    3.027E+03                                 F               0         Blade 1 X force, node 22, N
         65    4.931E+02                                 F               0         Blade 1 Y force, node 22, N
         66   -2.656E+02                                 F               0         Blade 1 Z force, node 22, N
         67    3.112E+03                                 F               0         Blade 1 X force, node 23, N
         68    4.843E+02                                 F               0         Blade 1 Y force, node 23, N
         69   -2.959E+02                                 F               0         Blade 1 Z force, node 23, N
         70    3.253E+03                                 F               0         Blade 1 X force, node 24, N
         71    4.838E+02                                 F               0         Blade 1 Y force, node 24, N
         72   -3.318E+02                                 F               0         Blade 1 Z force, node 24, N
         73    3.337E+03                                 F               0         Blade 1 X force, node 25, N
         74    4.748E+02                                 F               0         Blade 1 Y force, node 25, N
         75   -3.621E+02                                 F               0         Blade 1 Z force, node 25, N
         76    3.439E+03                                 F               0         Blade 1 X force, node 26, N
         77    4.685E+02                                 F               0         Blade 1 Y force, node 26, N
         78   -3.943E+02                                 F               0         Blade 1 Z force, node 26, N
         79    4.125E+03                                 F               0         Blade 1 X force, node 27, N
         80    5.369E+02                                 F               0         Blade 1 Y force, node 27, N
         81   -4.980E+02                                 F               0         Blade 1 Z force, node 27, N
         82    3.061E+03                                 F               0         Blade 1 X force, node 28, N
         83    3.812E+02                                 F               0         Blade 1 Y force, node 28, N
         84   -3.869E+02                                 F               0         Blade 1 Z force, node 28, N
         85    3.747E+03                                 F               0         Blade 1 X force, node 29, N
         86    4.497E+02                                 F               0         Blade 1 Y force, node 29, N
         87   -4.907E+02                                 F               0         Blade 1 Z force, node 29, N
         88    3.190E+03                                 F               0         Blade 1 X force, node 30, N
         89    3.691E+02                                 F               0         Blade 1 Y force, node 30, N
         90   -4.315E+02                                 F               0         Blade 1 Z force, node 30, N
         91    4.613E+03                                 F               0         Blade 1 X force, node 31, N
         92    5.115E+02                                 F               0         Blade 1 Y force, node 31, N
         93   -6.463E+02                                 F               0         Blade 1 Z force, node 31, N
         94    4.055E+03                                 F               0         Blade 1 X force, node 32, N
         95    4.309E+02                                 F               0         Blade 1 Y force, node 32, N
         96   -5.870E+02                                 F               0         Blade 1 Z force, node 32, N
         97    4.157E+03                                 F               0         Blade 1 X force, node 33, N
         98    4.245E+02                                 F               0         Blade 1 Y force, node 33, N
         99   -6.190E+02                                 F               0         Blade 1 Z force, node 33, N
        100    4.259E+03                                 F               0         Blade 1 X force, node 34, N
        101    4.183E+02                                 F               0         Blade 1 Y force, node 34, N
        102   -6.512E+02                                 F               0         Blade 1 Z force, node 34, N
        103    4.362E+03                                 F               0         Blade 1 X force, node 35, N
        104    4.120E+02                                 F               0         Blade 1 Y force, node 35, N
        105   -6.833E+02                                 F               0         Blade 1 Z force, node 35, N
        106    4.464E+03                                 F               0         Blade 1 X force, node 36, N
        107    4.057E+02                                 F               0         Blade 1 Y force, node 36, N
        108   -7.153E+02                                 F               0         Blade 1 Z force, node 36, N
        109    5.342E+03                                 F               0         Blade 1 X force, node 37, N
        110    4.662E+02                                 F               0         Blade 1 Y force, node 37, N
        111   -8.756E+02                                 F               0         Blade 1 Z force, node 37, N
        112    3.893E+03                                 F               0         Blade 1 X force, node 38, N
        113    3.265E+02                                 F               0         Blade 1 Y force, node 38, N
        114   -6.513E+02                                 F               0         Blade 1 Z force, node 38, N
        115    4.773E+03                                 F               0         Blade 1 X force, node 39, N
        116    3.872E+02                                 F               0         Blade 1 Y force, node 39, N
        117   -8.117E+02                                 F               0         Blade 1 Z force, node 39, N
        118    4.071E+03                                 F               0         Blade 1 X force, node 40, N
        119    3.194E+02                                 F               0         Blade 1 Y force, node 40, N
        120   -7.032E+02                                 F               0         Blade 1 Z force, node 40, N
        121    5.784E+03                                 F               0         Blade 1 X force, node 41, N
        122    4.365E+02                                 F               0         Blade 1 Y force, node 41, N
        123   -1.017E+03                                 F               0         Blade 1 Z force, node 41, N
        124    5.081E+03                                 F               0         Blade 1 X force, node 42, N
        125    3.686E+02                                 F               0         Blade 1 Y force, node 42, N
        126   -9.079E+02                                 F               0         Blade 1 Z force, node 42, N
        127    5.183E+03                                 F               0         Blade 1 X force, node 43, N
        128    3.624E+02                                 F               0         Blade 1 Y force, node 43, N
        129   -9.399E+02                                 F               0         Blade 1 Z force, node 43, N
        130    5.313E+03                                 F               0         Blade 1 X force, node 44, N
        131    3.580E+02                                 F               0         Blade 1 Y force, node 44, N
        132   -9.770E+02                                 F               0         Blade 1 Z force, node 44, N
        133    5.359E+03                                 F               0         Blade 1 X force, node 45, N
        134    3.481E+02                                 F               0         Blade 1 Y force, node 45, N
        135   -9.986E+02                                 F               0         Blade 1 Z force, node 45, N
        136    5.489E+03                                 F               0         Blade 1 X force, node 46, N
        137    3.437E+02                                 F               0         Blade 1 Y force, node 46, N
        138   -1.036E+03                                 F               0         Blade 1 Z force, node 46, N
        139    6.573E+03                                 F               0         Blade 1 X force, node 47, N
        140    3.958E+02                                 F               0         Blade 1 Y force, node 47, N
        141   -1.256E+03                                 F               0         Blade 1 Z force, node 47, N
        142    4.713E+03                                 F               0         Blade 1 X force, node 48, N
        143    2.731E+02                                 F               0         Blade 1 Y force, node 48, N
        144   -9.114E+02                                 F               0         Blade 1 Z force, node 48, N
        145    5.795E+03                                 F               0         Blade 1 X force, node 49, N
        146    3.251E+02                                 F               0         Blade 1 Y force, node 49, N
        147   -1.132E+03                                 F               0         Blade 1 Z force, node 49, N
        148    4.959E+03                                 F               0         Blade 1 X force, node 50, N
        149    2.692E+02                                 F               0         Blade 1 Y force, node 50, N
        150   -9.774E+02                                 F               0         Blade 1 Z force, node 50, N
        151    6.938E+03                                 F               0         Blade 1 X force, node 51, N
        152    3.624E+02                                 F               0         Blade 1 Y force, node 51, N
        153   -1.382E+03                                 F               0         Blade 1 Z force, node 51, N
        154    6.103E+03                                 F               0         Blade 1 X force, node 52, N
        155    3.067E+02                                 F               0         Blade 1 Y force, node 52, N
        156   -1.228E+03                                 F               0         Blade 1 Z force, node 52, N
        157    6.207E+03                                 F               0         Blade 1 X force, node 53, N
        158    3.007E+02                                 F               0         Blade 1 Y force, node 53, N
        159   -1.260E+03                                 F               0         Blade 1 Z force, node 53, N
        160    6.380E+03                                 F               0         Blade 1 X force, node 54, N
        161    2.979E+02                                 F               0         Blade 1 Y force, node 54, N
        162   -1.306E+03                                 F               0         Blade 1 Z force, node 54, N
        163    6.344E+03                                 F               0         Blade 1 X force, node 55, N
        164    2.854E+02                                 F               0         Blade 1 Y force, node 55, N
        165   -1.310E+03                                 F               0         Blade 1 Z force, node 55, N
        166    6.517E+03                                 F               0         Blade 1 X force, node 56, N
        167    2.826E+02                                 F               0         Blade 1 Y force, node 56, N
        168   -1.356E+03                                 F               0         Blade 1 Z force, node 56, N
        169    7.818E+03                                 F               0         Blade 1 X force, node 57, N
        170    3.257E+02                                 F               0         Blade 1 Y force, node 57, N
        171   -1.640E+03                                 F               0         Blade 1 Z force, node 57, N
        172    5.525E+03                                 F               0         Blade 1 X force, node 58, N
        173    2.213E+02                                 F               0         Blade 1 Y force, node 58, N
        174   -1.168E+03                                 F               0         Blade 1 Z force, node 58, N
        175    6.827E+03                                 F               0         Blade 1 X force, node 59, N
        176    2.644E+02                                 F               0         Blade 1 Y force, node 59, N
        177   -1.452E+03                                 F               0         Blade 1 Z force, node 59, N
        178    5.869E+03                                 F               0         Blade 1 X force, node 60, N
        179    2.197E+02                                 F               0         Blade 1 Y force, node 60, N
        180   -1.256E+03                                 F               0         Blade 1 Z force, node 60, N
        181    8.094E+03                                 F               0         Blade 1 X force, node 61, N
        182    2.910E+02                                 F               0         Blade 1 Y force, node 61, N
        183   -1.744E+03                                 F               0         Blade 1 Z force, node 61, N
        184    7.134E+03                                 F               0         Blade 1 X force, node 62, N