
Linearized model: Predictions were generated on 12-Jan-2024 at 09:28:28 using OpenFAST, compiled as a 64-bit application using single precision at commit v3.5.1
 linked with  NWTC Subroutine Library; ElastoDyn; InflowWind; AeroDyn; ServoDyn; HydroDyn; MAP++ (<1.20.10>, <Oct-20-2023>)

Description from the FAST input file: CCT-9 Campign 4 model. Input files to be run with OpenFAST 3.5.0. GitHub branch from Lu Wang (https://github.com/luwang00/openfast/tree/dev) compiled on March 7, 2023.

Simulation information:
   Simulation time:                   506.9250 s
   Rotor Speed:                         0.8780 rad/s
   Azimuth:                             3.6479 rad
   Wind Speed:                         10.0000 m/s
   Number of continuous states:         0
   Number of discrete states:           0
   Number of constraint states:         0
   Number of inputs:                 1746
   Number of outputs:                   4
   Jacobians included in this file?    No

Order of inputs:
     Column   Operating Point                     Rotating Frame? Derivative Order Description
   ---------- ---------------                     --------------- ---------------- -----------
          1    1.099E+01                                 F               0         Tower X translation displacement, node 1, m
          2   -1.215E+00                                 F               0         Tower Y translation displacement, node 1, m
          3   -3.118E-01                                 F               0         Tower Z translation displacement, node 1, m
          4    1.246E+01                                 F               0         Tower X translation displacement, node 2, m
          5   -1.795E+00                                 F               0         Tower Y translation displacement, node 2, m
          6   -4.130E-01                                 F               0         Tower Z translation displacement, node 2, m
          7    1.395E+01                                 F               0         Tower X translation displacement, node 3, m
          8   -2.380E+00                                 F               0         Tower Y translation displacement, node 3, m
          9   -5.174E-01                                 F               0         Tower Z translation displacement, node 3, m
         10    1.546E+01                                 F               0         Tower X translation displacement, node 4, m
         11   -2.970E+00                                 F               0         Tower Y translation displacement, node 4, m
         12   -6.243E-01                                 F               0         Tower Z translation displacement, node 4, m
         13    1.699E+01                                 F               0         Tower X translation displacement, node 5, m
         14   -3.563E+00                                 F               0         Tower Y translation displacement, node 5, m
         15   -7.333E-01                                 F               0         Tower Z translation displacement, node 5, m
         16    1.853E+01                                 F               0         Tower X translation displacement, node 6, m
         17   -4.160E+00                                 F               0         Tower Y translation displacement, node 6, m
         18   -8.440E-01                                 F               0         Tower Z translation displacement, node 6, m
         19    2.007E+01                                 F               0         Tower X translation displacement, node 7, m
         20   -4.759E+00                                 F               0         Tower Y translation displacement, node 7, m
         21   -9.560E-01                                 F               0         Tower Z translation displacement, node 7, m
         22    2.163E+01                                 F               0         Tower X translation displacement, node 8, m
         23   -5.361E+00                                 F               0         Tower Y translation displacement, node 8, m
         24   -1.069E+00                                 F               0         Tower Z translation displacement, node 8, m
         25    2.319E+01                                 F               0         Tower X translation displacement, node 9, m
         26   -5.964E+00                                 F               0         Tower Y translation displacement, node 9, m
         27   -1.183E+00                                 F               0         Tower Z translation displacement, node 9, m
         28    2.475E+01                                 F               0         Tower X translation displacement, node 10, m
         29   -6.568E+00                                 F               0         Tower Y translation displacement, node 10, m
         30   -1.297E+00                                 F               0         Tower Z translation displacement, node 10, m
         31    2.632E+01                                 F               0         Tower X translation displacement, node 11, m
         32   -7.173E+00                                 F               0         Tower Y translation displacement, node 11, m
         33   -1.412E+00                                 F               0         Tower Z translation displacement, node 11, m
         34    9.930E-01,  1.011E-02, -1.177E-01         F               0         Tower X orientation angle, node 1, rad
         35   -4.528E-03,  9.989E-01,  4.760E-02         F               0         Tower Y orientation angle, node 1, rad
         36    1.180E-01, -4.673E-02,  9.919E-01         F               0         Tower Z orientation angle, node 1, rad
         37    9.928E-01,  1.020E-02, -1.195E-01         F               0         Tower X orientation angle, node 2, rad
         38   -4.475E-03,  9.988E-01,  4.804E-02         F               0         Tower Y orientation angle, node 2, rad
         39    1.199E-01, -4.716E-02,  9.917E-01         F               0         Tower Z orientation angle, node 2, rad
         40    9.926E-01,  1.027E-02, -1.212E-01         F               0         Tower X orientation angle, node 3, rad
         41   -4.427E-03,  9.988E-01,  4.844E-02         F               0         Tower Y orientation angle, node 3, rad
         42    1.215E-01, -4.754E-02,  9.915E-01         F               0         Tower Z orientation angle, node 3, rad
         43    9.924E-01,  1.034E-02, -1.225E-01         F               0         Tower X orientation angle, node 4, rad
         44   -4.384E-03,  9.988E-01,  4.878E-02         F               0         Tower Y orientation angle, node 4, rad
         45    1.229E-01, -4.788E-02,  9.913E-01         F               0         Tower Z orientation angle, node 4, rad
         46    9.923E-01,  1.040E-02, -1.237E-01         F               0         Tower X orientation angle, node 5, rad
         47   -4.347E-03,  9.988E-01,  4.908E-02         F               0         Tower Y orientation angle, node 5, rad
         48    1.240E-01, -4.816E-02,  9.911E-01         F               0         Tower Z orientation angle, node 5, rad
         49    9.922E-01,  1.044E-02, -1.246E-01         F               0         Tower X orientation angle, node 6, rad
         50   -4.316E-03,  9.988E-01,  4.933E-02         F               0         Tower Y orientation angle, node 6, rad
         51    1.249E-01, -4.841E-02,  9.910E-01         F               0         Tower Z orientation angle, node 6, rad
         52    9.921E-01,  1.047E-02, -1.252E-01         F               0         Tower X orientation angle, node 7, rad
         53   -4.291E-03,  9.988E-01,  4.953E-02         F               0         Tower Y orientation angle, node 7, rad
         54    1.256E-01, -4.860E-02,  9.909E-01         F               0         Tower Z orientation angle, node 7, rad
         55    9.920E-01,  1.050E-02, -1.257E-01         F               0         Tower X orientation angle, node 8, rad
         56   -4.271E-03,  9.988E-01,  4.968E-02         F               0         Tower Y orientation angle, node 8, rad
         57    1.261E-01, -4.875E-02,  9.908E-01         F               0         Tower Z orientation angle, node 8, rad
         58    9.920E-01,  1.051E-02, -1.261E-01         F               0         Tower X orientation angle, node 9, rad
         59   -4.257E-03,  9.988E-01,  4.980E-02         F               0         Tower Y orientation angle, node 9, rad
         60    1.264E-01, -4.886E-02,  9.908E-01         F               0         Tower Z orientation angle, node 9, rad
         61    9.919E-01,  1.052E-02, -1.263E-01         F               0         Tower X orientation angle, node 10, rad
         62   -4.248E-03,  9.987E-01,  4.987E-02         F               0         Tower Y orientation angle, node 10, rad
         63    1.267E-01, -4.893E-02,  9.907E-01         F               0         Tower Z orientation angle, node 10, rad
         64    9.919E-01,  1.053E-02, -1.264E-01         F               0         Tower X orientation angle, node 11, rad
         65   -4.242E-03,  9.987E-01,  4.991E-02         F               0         Tower Y orientation angle, node 11, rad
         66    1.268E-01, -4.897E-02,  9.907E-01         F               0         Tower Z orientation angle, node 11, rad
         67   -4.771E-03                                 F               0         Tower X translation velocity, node 1, m/s
         68    6.261E-03                                 F               0         Tower Y translation velocity, node 1, m/s
         69    5.148E-03                                 F               0         Tower Z translation velocity, node 1, m/s
         70   -4.856E-03                                 F               0         Tower X translation velocity, node 2, m/s
         71    1.029E-02                                 F               0         Tower Y translation velocity, node 2, m/s
         72    5.349E-03                                 F               0         Tower Z translation velocity, node 2, m/s
         73   -4.912E-03                                 F               0         Tower X translation velocity, node 3, m/s
         74    1.452E-02                                 F               0         Tower Y translation velocity, node 3, m/s
         75    5.558E-03                                 F               0         Tower Z translation velocity, node 3, m/s
         76   -4.945E-03                                 F               0         Tower X translation velocity, node 4, m/s
         77    1.892E-02                                 F               0         Tower Y translation velocity, node 4, m/s
         78    5.773E-03                                 F               0         Tower Z translation velocity, node 4, m/s
         79   -4.958E-03                                 F               0         Tower X translation velocity, node 5, m/s
         80    2.345E-02                                 F               0         Tower Y translation velocity, node 5, m/s
         81    5.995E-03                                 F               0         Tower Z translation velocity, node 5, m/s
         82   -4.953E-03                                 F               0         Tower X translation velocity, node 6, m/s
         83    2.811E-02                                 F               0         Tower Y translation velocity, node 6, m/s
         84    6.221E-03                                 F               0         Tower Z translation velocity, node 6, m/s
         85   -4.935E-03                                 F               0         Tower X translation velocity, node 7, m/s
         86    3.287E-02                                 F               0         Tower Y translation velocity, node 7, m/s
         87    6.452E-03                                 F               0         Tower Z translation velocity, node 7, m/s
         88   -4.905E-03                                 F               0         Tower X translation velocity, node 8, m/s
         89    3.771E-02                                 F               0         Tower Y translation velocity, node 8, m/s
         90    6.686E-03                                 F               0         Tower Z translation velocity, node 8, m/s
         91   -4.866E-03                                 F               0         Tower X translation velocity, node 9, m/s
         92    4.262E-02                                 F               0         Tower Y translation velocity, node 9, m/s
         93    6.923E-03                                 F               0         Tower Z translation velocity, node 9, m/s
         94   -4.821E-03                                 F               0         Tower X translation velocity, node 10, m/s
         95    4.758E-02                                 F               0         Tower Y translation velocity, node 10, m/s
         96    7.162E-03                                 F               0         Tower Z translation velocity, node 10, m/s
         97   -4.772E-03                                 F               0         Tower X translation velocity, node 11, m/s
         98    5.256E-02                                 F               0         Tower Y translation velocity, node 11, m/s
         99    7.402E-03                                 F               0         Tower Z translation velocity, node 11, m/s
        100    2.740E+01                                 F               0         Hub X translation displacement, node 1, m
        101   -7.671E+00                                 F               0         Hub Y translation displacement, node 1, m
        102   -1.194E-01                                 F               0         Hub Z translation displacement, node 1, m
        103    9.732E-01,  1.559E-02, -2.293E-01         F               0         Hub X orientation angle, node 1, rad
        104   -1.077E-01, -8.504E-01, -5.150E-01         F               0         Hub Y orientation angle, node 1, rad
        105   -2.030E-01,  5.260E-01, -8.259E-01         F               0         Hub Z orientation angle, node 1, rad
        106    8.541E-01                                 F               0         Hub X rotation velocity, node 1, rad/s
        107    1.369E-02                                 F               0         Hub Y rotation velocity, node 1, rad/s
        108   -2.011E-01                                 F               0         Hub Z rotation velocity, node 1, rad/s
        109    9.760E-01,  4.081E-02, -2.139E-01         F               0         Blade root 1 X orientation angle, node 1, rad
        110   -7.878E-02, -8.495E-01, -5.216E-01         F               0         Blade root 1 Y orientation angle, node 1, rad
        111   -2.030E-01,  5.260E-01, -8.259E-01         F               0         Blade root 1 Z orientation angle, node 1, rad
        112    9.764E-01, -1.054E-02, -2.156E-01         F               0         Blade root 2 X orientation angle, node 1, rad
        113   -9.301E-02,  8.807E-01, -4.644E-01         F               0         Blade root 2 Y orientation angle, node 1, rad
        114    1.948E-01,  4.735E-01,  8.590E-01         F               0         Blade root 2 Z orientation angle, node 1, rad
        115    9.660E-01,  1.648E-02, -2.580E-01         F               0         Blade root 3 X orientation angle, node 1, rad
        116    2.584E-01, -2.983E-02,  9.656E-01         F               0         Blade root 3 Y orientation angle, node 1, rad
        117    8.220E-03, -9.994E-01, -3.307E-02         F               0         Blade root 3 Z orientation angle, node 1, rad
        118    2.570E+01                                 F               0         Blade 1 X translation displacement, node 1, m
        119   -4.757E+00                                 F               0         Blade 1 Y translation displacement, node 1, m
        120   -1.020E+01                                 F               0         Blade 1 Z translation displacement, node 1, m
        121    2.529E+01                                 F               0         Blade 1 X translation displacement, node 2, m
        122   -4.055E+00                                 F               0         Blade 1 Y translation displacement, node 2, m
        123   -1.263E+01                                 F               0         Blade 1 Z translation displacement, node 2, m
        124    1.970E+01                                 F               0         Blade 1 X translation displacement, node 3, m
        125    5.492E+00                                 F               0         Blade 1 Y translation displacement, node 3, m
        126   -4.568E+01                                 F               0         Blade 1 Z translation displacement, node 3, m
        127    1.852E+01                                 F               0         Blade 1 X translation displacement, node 4, m
        128    7.526E+00                                 F               0         Blade 1 Y translation displacement, node 4, m
        129   -5.272E+01                                 F               0         Blade 1 Z translation displacement, node 4, m
        130    1.733E+01                                 F               0         Blade 1 X translation displacement, node 5, m
        131    9.561E+00                                 F               0         Blade 1 Y translation displacement, node 5, m
        132   -5.976E+01                                 F               0         Blade 1 Z translation displacement, node 5, m
        133    1.614E+01                                 F               0         Blade 1 X translation displacement, node 6, m
        134    1.159E+01                                 F               0         Blade 1 Y translation displacement, node 6, m
        135   -6.680E+01                                 F               0         Blade 1 Z translation displacement, node 6, m
        136    1.495E+01                                 F               0         Blade 1 X translation displacement, node 7, m
        137    1.363E+01                                 F               0         Blade 1 Y translation displacement, node 7, m
        138   -7.384E+01                                 F               0         Blade 1 Z translation displacement, node 7, m
        139    1.376E+01                                 F               0         Blade 1 X translation displacement, node 8, m
        140    1.566E+01                                 F               0         Blade 1 Y translation displacement, node 8, m
        141   -8.089E+01                                 F               0         Blade 1 Z translation displacement, node 8, m
        142    1.257E+01                                 F               0         Blade 1 X translation displacement, node 9, m
        143    1.770E+01                                 F               0         Blade 1 Y translation displacement, node 9, m
        144   -8.793E+01                                 F               0         Blade 1 Z translation displacement, node 9, m
        145    1.138E+01                                 F               0         Blade 1 X translation displacement, node 10, m
        146    1.973E+01                                 F               0         Blade 1 Y translation displacement, node 10, m
        147   -9.497E+01                                 F               0         Blade 1 Z translation displacement, node 10, m
        148    1.019E+01                                 F               0         Blade 1 X translation displacement, node 11, m
        149    2.177E+01                                 F               0         Blade 1 Y translation displacement, node 11, m
        150   -1.020E+02                                 F               0         Blade 1 Z translation displacement, node 11, m
        151    9.000E+00                                 F               0         Blade 1 X translation displacement, node 12, m
        152    2.380E+01                                 F               0         Blade 1 Y translation displacement, node 12, m
        153   -1.090E+02                                 F               0         Blade 1 Z translation displacement, node 12, m
        154    7.811E+00                                 F               0         Blade 1 X translation displacement, node 13, m
        155    2.583E+01                                 F               0         Blade 1 Y translation displacement, node 13, m
        156   -1.161E+02                                 F               0         Blade 1 Z translation displacement, node 13, m
        157    6.621E+00                                 F               0         Blade 1 X translation displacement, node 14, m
        158    2.787E+01                                 F               0         Blade 1 Y translation displacement, node 14, m
        159   -1.231E+02                                 F               0         Blade 1 Z translation displacement, node 14, m
        160    5.432E+00                                 F               0         Blade 1 X translation displacement, node 15, m
        161    2.990E+01                                 F               0         Blade 1 Y translation displacement, node 15, m
        162   -1.302E+02                                 F               0         Blade 1 Z translation displacement, node 15, m
        163    4.243E+00                                 F               0         Blade 1 X translation displacement, node 16, m
        164    3.194E+01                                 F               0         Blade 1 Y translation displacement, node 16, m
        165   -1.372E+02                                 F               0         Blade 1 Z translation displacement, node 16, m
        166    3.053E+00                                 F               0         Blade 1 X translation displacement, node 17, m
        167    3.397E+01                                 F               0         Blade 1 Y translation displacement, node 17, m
        168   -1.443E+02                                 F               0         Blade 1 Z translation displacement, node 17, m
        169    1.864E+00                                 F               0         Blade 1 X translation displacement, node 18, m
        170    3.601E+01                                 F               0         Blade 1 Y translation displacement, node 18, m
        171   -1.513E+02                                 F               0         Blade 1 Z translation displacement, node 18, m
        172    6.744E-01                                 F               0         Blade 1 X translation displacement, node 19, m
        173    3.804E+01                                 F               0         Blade 1 Y translation displacement, node 19, m
        174   -1.583E+02                                 F               0         Blade 1 Z translation displacement, node 19, m
        175   -5.149E-01                                 F               0         Blade 1 X translation displacement, node 20, m
        176    4.007E+01                                 F               0         Blade 1 Y translation displacement, node 20, m
        177   -1.654E+02                                 F               0         Blade 1 Z translation displacement, node 20, m
        178   -1.704E+00                                 F               0         Blade 1 X translation displacement, node 21, m
        179    4.211E+01                                 F               0         Blade 1 Y translation displacement, node 21, m
        180   -1.724E+02                                 F               0         Blade 1 Z translation displacement, node 21, m
        181   -2.894E+00                                 F               0         Blade 1 X translation displacement, node 22, m
        182    4.414E+01                                 F               0         Blade 1 Y translation displacement, node 22, m
        183   -1.795E+02                                 F               0         Blade 1 Z translation displacement, node 22, m
        184   -4.083E+00                                 F               0         Blade 1 X translation displacement, node 23, m
        185    4.618E+01                                 F               0         Blade 1 Y translation displacement, node 23, m
        186   -1.865E+02                                 F               0         Blade 1 Z translation displacement, node 23, m
        187   -5.272E+00                                 F               0         Blade 1 X translation displacement, node 24, m
        188    4.821E+01                                 F               0         Blade 1 Y translation displacement, node 24, m
        189   -1.935E+02                                 F               0         Blade 1 Z translation displacement, node 24, m
        190   -6.462E+00                                 F               0         Blade 1 X translation displacement, node 25, m
        191    5.024E+01                                 F               0         Blade 1 Y translation displacement, node 25, m
        192   -2.006E+02                                 F               0         Blade 1 Z translation displacement, node 25, m
        193   -7.651E+00                                 F               0         Blade 1 X translation displacement, node 26, m
        194    5.228E+01                                 F               0         Blade 1 Y translation displacement, node 26, m
        195   -2.076E+02                                 F               0         Blade 1 Z translation displacement, node 26, m
        196   -8.840E+00                                 F               0         Blade 1 X translation displacement, node 27, m
        197    5.431E+01                                 F               0         Blade 1 Y translation displacement, node 27, m
        198   -2.147E+02                                 F               0         Blade 1 Z translation displacement, node 27, m
        199   -9.849E+00                                 F               0         Blade 1 X translation displacement, node 28, m
        200    5.604E+01                                 F               0         Blade 1 Y translation displacement, node 28, m
        201   -2.206E+02                                 F               0         Blade 1 Z translation displacement, node 28, m
        202    9.045E-01,  4.237E-01,  4.752E-02         F               0         Blade 1 X orientation angle, node 1, rad
        203    3.750E-01, -7.375E-01, -5.618E-01         F               0         Blade 1 Y orientation angle, node 1, rad
        204   -2.030E-01,  5.260E-01, -8.259E-01         F               0         Blade 1 Z orientation angle, node 1, rad
        205    9.045E-01,  4.237E-01,  4.752E-02         F               0         Blade 1 X orientation angle, node 2, rad
        206    3.750E-01, -7.375E-01, -5.618E-01         F               0         Blade 1 Y orientation angle, node 2, rad
        207   -2.030E-01,  5.260E-01, -8.259E-01         F               0         Blade 1 Z orientation angle, node 2, rad
        208    9.676E-01,  2.369E-01, -8.698E-02         F               0         Blade 1 X orientation angle, node 3, rad
        209    1.499E-01, -8.169E-01, -5.570E-01         F               0         Blade 1 Y orientation angle, node 3, rad
        210   -2.030E-01,  5.260E-01, -8.259E-01         F               0         Blade 1 Z orientation angle, node 3, rad
        211    9.731E-01,  2.022E-01, -1.104E-01         F               0         Blade 1 X orientation angle, node 4, rad
        212    1.089E-01, -8.261E-01, -5.528E-01         F               0         Blade 1 Y orientation angle, node 4, rad
        213   -2.030E-01,  5.260E-01, -8.259E-01         F               0         Blade 1 Z orientation angle, node 4, rad
        214    9.762E-01,  1.747E-01, -1.287E-01         F               0         Blade 1 X orientation angle, node 5, rad
        215    7.657E-02, -8.324E-01, -5.489E-01         F               0         Blade 1 Y orientation angle, node 5, rad
        216   -2.030E-01,  5.260E-01, -8.259E-01         F               0         Blade 1 Z orientation angle, node 5, rad
        217    9.779E-01,  1.525E-01, -1.432E-01         F               0         Blade 1 X orientation angle, node 6, rad
        218    5.065E-02, -8.367E-01, -5.453E-01         F               0         Blade 1 Y orientation angle, node 6, rad
        219   -2.030E-01,  5.260E-01, -8.259E-01         F               0         Blade 1 Z orientation angle, node 6, rad
        220    9.787E-01,  1.342E-01, -1.551E-01         F               0         Blade 1 X orientation angle, node 7, rad
        221    2.931E-02, -8.399E-01, -5.420E-01         F               0         Blade 1 Y orientation angle, node 7, rad
        222   -2.030E-01,  5.260E-01, -8.259E-01         F               0         Blade 1 Z orientation angle, node 7, rad
        223    9.791E-01,  1.190E-01, -1.649E-01         F               0         Blade 1 X orientation angle, node 8, rad
        224    1.154E-02, -8.422E-01, -5.391E-01         F               0         Blade 1 Y orientation angle, node 8, rad
        225   -2.030E-01,  5.260E-01, -8.259E-01         F               0         Blade 1 Z orientation angle, node 8, rad
        226    9.792E-01,  1.060E-01, -1.731E-01         F               0         Blade 1 X orientation angle, node 9, rad
        227   -3.500E-03, -8.439E-01, -5.365E-01         F               0         Blade 1 Y orientation angle, node 9, rad