
Linearized model: Predictions were generated on 13-Feb-2024 at 11:29:37 using OpenFAST, compiled as a 64-bit application using single precision at commit v3.5.1
 linked with  NWTC Subroutine Library; ElastoDyn; InflowWind; AeroDyn; ServoDyn; HydroDyn; MAP++ (<1.20.10>, <Oct-20-2023>)

Description from the FAST input file: CCT-9 Campign 4 model. Input files to be run with OpenFAST 3.5.0. GitHub branch from Lu Wang (https://github.com/luwang00/openfast/tree/dev) compiled on March 7, 2023.

Simulation information:
   Simulation time:                  1213.9250 s
   Rotor Speed:                         0.7917 rad/s
   Azimuth:                             2.4539 rad
   Wind Speed:                         16.0000 m/s
   Number of continuous states:         0
   Number of discrete states:           0
   Number of constraint states:         0
   Number of inputs:                  303
   Number of outputs:                   1
   Jacobians included in this file?    No

Order of inputs:
     Column   Operating Point                                                   Rotating Frame? Derivative Order Description
   ---------- ---------------                                                   --------------- ---------------- -----------
          1    -1.08005075455E+001                                                     F               0         X-component position of node 1 (hub), m
          2     0.00000000000E+000                                                     F               0         Y-component position of node 1 (hub), m
          3     1.49740173340E+002                                                     F               0         Z-component position of node 1 (hub), m
          4     1.37813053131E+001                                                     F               0         X-component position of node 2 (blade 1, node 1), m
          5    -1.16214914322E+001                                                     F               0         Y-component position of node 2 (blade 1, node 1), m
          6     1.45321838379E+002                                                     F               0         Z-component position of node 2 (blade 1, node 1), m
          7     1.35570697784E+001                                                     F               0         X-component position of node 3 (blade 1, node 2), m
          8    -1.24155073166E+001                                                     F               0         Y-component position of node 3 (blade 1, node 2), m
          9     1.44272445679E+002                                                     F               0         Z-component position of node 3 (blade 1, node 2), m
         10     1.05078592300E+001                                                     F               0         X-component position of node 4 (blade 1, node 3), m
         11    -2.32127571106E+001                                                     F               0         Y-component position of node 4 (blade 1, node 3), m
         12     1.30002487183E+002                                                     F               0         Z-component position of node 4 (blade 1, node 3), m
         13     9.85820770264E+000                                                     F               0         X-component position of node 5 (blade 1, node 4), m
         14    -2.55131740570E+001                                                     F               0         Y-component position of node 5 (blade 1, node 4), m
         15     1.26962196350E+002                                                     F               0         Z-component position of node 5 (blade 1, node 4), m
         16     9.20843124390E+000                                                     F               0         X-component position of node 6 (blade 1, node 5), m
         17    -2.78140296936E+001                                                     F               0         Y-component position of node 6 (blade 1, node 5), m
         18     1.23921318054E+002                                                     F               0         Z-component position of node 6 (blade 1, node 5), m
         19     8.55877685547E+000                                                     F               0         X-component position of node 7 (blade 1, node 6), m
         20    -3.01144561768E+001                                                     F               0         Y-component position of node 7 (blade 1, node 6), m
         21     1.20881011963E+002                                                     F               0         Z-component position of node 7 (blade 1, node 6), m
         22     7.90911912918E+000                                                     F               0         X-component position of node 8 (blade 1, node 7), m
         23    -3.24148902893E+001                                                     F               0         Y-component position of node 8 (blade 1, node 7), m
         24     1.17840690613E+002                                                     F               0         Z-component position of node 8 (blade 1, node 7), m
         25     7.25934553146E+000                                                     F               0         X-component position of node 9 (blade 1, node 8), m
         26    -3.47157363892E+001                                                     F               0         Y-component position of node 9 (blade 1, node 8), m
         27     1.14799819946E+002                                                     F               0         Z-component position of node 9 (blade 1, node 8), m
         28     6.60968732834E+000                                                     F               0         X-component position of node 10 (blade 1, node 9), m
         29    -3.70161743164E+001                                                     F               0         Y-component position of node 10 (blade 1, node 9), m
         30     1.11759506226E+002                                                     F               0         Z-component position of node 10 (blade 1, node 9), m
         31     5.96003293991E+000                                                     F               0         X-component position of node 11 (blade 1, node 10), m
         32    -3.93166007996E+001                                                     F               0         Y-component position of node 11 (blade 1, node 10), m
         33     1.08719192505E+002                                                     F               0         Z-component position of node 11 (blade 1, node 10), m
         34     5.31037473679E+000                                                     F               0         X-component position of node 12 (blade 1, node 11), m
         35    -4.16170349121E+001                                                     F               0         Y-component position of node 12 (blade 1, node 11), m
         36     1.05678871155E+002                                                     F               0         Z-component position of node 12 (blade 1, node 11), m
         37     4.66060590744E+000                                                     F               0         X-component position of node 13 (blade 1, node 12), m
         38    -4.39178733826E+001                                                     F               0         Y-component position of node 13 (blade 1, node 12), m
         39     1.02638015747E+002                                                     F               0         Z-component position of node 13 (blade 1, node 12), m
         40     4.01094722748E+000                                                     F               0         X-component position of node 14 (blade 1, node 13), m
         41    -4.62183113098E+001                                                     F               0         Y-component position of node 14 (blade 1, node 13), m
         42     9.95976943970E+001                                                     F               0         Z-component position of node 14 (blade 1, node 13), m
         43     3.36129307747E+000                                                     F               0         X-component position of node 15 (blade 1, node 14), m
         44    -4.85187377930E+001                                                     F               0         Y-component position of node 15 (blade 1, node 14), m
         45     9.65573806763E+001                                                     F               0         Z-component position of node 15 (blade 1, node 14), m
         46     2.71151709557E+000                                                     F               0         X-component position of node 16 (blade 1, node 15), m
         47    -5.08195877075E+001                                                     F               0         Y-component position of node 16 (blade 1, node 15), m
         48     9.35165176392E+001                                                     F               0         Z-component position of node 16 (blade 1, node 15), m
         49     2.06186223030E+000                                                     F               0         X-component position of node 17 (blade 1, node 16), m
         50    -5.31200180054E+001                                                     F               0         Y-component position of node 17 (blade 1, node 16), m
         51     9.04762039185E+001                                                     F               0         Z-component position of node 17 (blade 1, node 16), m
         52     1.41220355034E+000                                                     F               0         X-component position of node 18 (blade 1, node 17), m
         53    -5.54204559326E+001                                                     F               0         Y-component position of node 18 (blade 1, node 17), m
         54     8.74358749390E+001                                                     F               0         Z-component position of node 18 (blade 1, node 17), m
         55     7.62548446655E-001                                                     F               0         X-component position of node 19 (blade 1, node 18), m
         56    -5.77208862305E+001                                                     F               0         Y-component position of node 19 (blade 1, node 18), m
         57     8.43955612183E+001                                                     F               0         Z-component position of node 19 (blade 1, node 18), m
         58     1.12778067589E-001                                                     F               0         X-component position of node 20 (blade 1, node 19), m
         59    -6.00217208862E+001                                                     F               0         Y-component position of node 20 (blade 1, node 19), m
         60     8.13547134399E+001                                                     F               0         Z-component position of node 20 (blade 1, node 19), m
         61    -5.36880970001E-001                                                     F               0         X-component position of node 21 (blade 1, node 20), m
         62    -6.23221588135E+001                                                     F               0         Y-component position of node 21 (blade 1, node 20), m
         63     7.83143920898E+001                                                     F               0         Z-component position of node 21 (blade 1, node 20), m
         64    -1.18653583527E+000                                                     F               0         X-component position of node 22 (blade 1, node 21), m
         65    -6.46225891113E+001                                                     F               0         Y-component position of node 22 (blade 1, node 21), m
         66     7.52740707397E+001                                                     F               0         Z-component position of node 22 (blade 1, node 21), m
         67    -1.83630967140E+000                                                     F               0         X-component position of node 23 (blade 1, node 22), m
         68    -6.69234390259E+001                                                     F               0         Y-component position of node 23 (blade 1, node 22), m
         69     7.22332077026E+001                                                     F               0         Z-component position of node 23 (blade 1, node 22), m
         70    -2.48596858978E+000                                                     F               0         X-component position of node 24 (blade 1, node 23), m
         71    -6.92238693237E+001                                                     F               0         Y-component position of node 24 (blade 1, node 23), m
         72     6.91928863525E+001                                                     F               0         Z-component position of node 24 (blade 1, node 23), m
         73    -3.13562345505E+000                                                     F               0         X-component position of node 25 (blade 1, node 24), m
         74    -7.15242996216E+001                                                     F               0         Y-component position of node 25 (blade 1, node 24), m
         75     6.61525726318E+001                                                     F               0         Z-component position of node 25 (blade 1, node 24), m
         76    -3.78527832031E+000                                                     F               0         X-component position of node 26 (blade 1, node 25), m
         77    -7.38247299194E+001                                                     F               0         Y-component position of node 26 (blade 1, node 25), m
         78     6.31122589111E+001                                                     F               0         Z-component position of node 26 (blade 1, node 25), m
         79    -4.43505239487E+000                                                     F               0         X-component position of node 27 (blade 1, node 26), m
         80    -7.61255798340E+001                                                     F               0         Y-component position of node 27 (blade 1, node 26), m
         81     6.00713882446E+001                                                     F               0         Z-component position of node 27 (blade 1, node 26), m
         82    -5.08470678329E+000                                                     F               0         X-component position of node 28 (blade 1, node 27), m
         83    -7.84260025024E+001                                                     F               0         Y-component position of node 28 (blade 1, node 27), m
         84     5.70310859680E+001                                                     F               0         Z-component position of node 28 (blade 1, node 27), m
         85    -5.63547801971E+000                                                     F               0         X-component position of node 29 (blade 1, node 28), m
         86    -8.03762817383E+001                                                     F               0         Y-component position of node 29 (blade 1, node 28), m
         87     5.44535408020E+001                                                     F               0         Z-component position of node 29 (blade 1, node 28), m
         88     1.45298957825E+001                                                     F               0         X-component position of node 30 (blade 2, node 1), m
         89    -2.82206916809E+000                                                     F               0         Y-component position of node 30 (blade 2, node 1), m
         90     1.49074783325E+002                                                     F               0         Z-component position of node 30 (blade 2, node 1), m
         91     1.44860382080E+001                                                     F               0         X-component position of node 31 (blade 2, node 2), m
         92    -1.49580585957E+000                                                     F               0         Y-component position of node 31 (blade 2, node 2), m
         93     1.48929687500E+002                                                     F               0         Z-component position of node 31 (blade 2, node 2), m
         94     1.38896636963E+001                                                     F               0         X-component position of node 32 (blade 2, node 3), m
         95     1.65391979218E+001                                                     F               0         Y-component position of node 32 (blade 2, node 3), m
         96     1.46956665039E+002                                                     F               0         Z-component position of node 32 (blade 2, node 3), m
         97     1.37626018524E+001                                                     F               0         X-component position of node 33 (blade 2, node 4), m
         98     2.03816871643E+001                                                     F               0         Y-component position of node 33 (blade 2, node 4), m
         99     1.46536300659E+002                                                     F               0         Z-component position of node 33 (blade 2, node 4), m
        100     1.36355152130E+001                                                     F               0         X-component position of node 34 (blade 2, node 5), m
        101     2.42248649597E+001                                                     F               0         Y-component position of node 34 (blade 2, node 5), m
        102     1.46115859985E+002                                                     F               0         Z-component position of node 34 (blade 2, node 5), m
        103     1.35084552765E+001                                                     F               0         X-component position of node 35 (blade 2, node 6), m
        104     2.80673522949E+001                                                     F               0         Y-component position of node 35 (blade 2, node 6), m
        105     1.45695495605E+002                                                     F               0         Z-component position of node 35 (blade 2, node 6), m
        106     1.33813924789E+001                                                     F               0         X-component position of node 36 (blade 2, node 7), m
        107     3.19098415375E+001                                                     F               0         Y-component position of node 36 (blade 2, node 7), m
        108     1.45275131226E+002                                                     F               0         Z-component position of node 36 (blade 2, node 7), m
        109     1.32543067932E+001                                                     F               0         X-component position of node 37 (blade 2, node 8), m
        110     3.57530174255E+001                                                     F               0         Y-component position of node 37 (blade 2, node 8), m
        111     1.44854675293E+002                                                     F               0         Z-component position of node 37 (blade 2, node 8), m
        112     1.31272449493E+001                                                     F               0         X-component position of node 38 (blade 2, node 9), m
        113     3.95955047607E+001                                                     F               0         Y-component position of node 38 (blade 2, node 9), m
        114     1.44434310913E+002                                                     F               0         Z-component position of node 38 (blade 2, node 9), m
        115     1.30001831055E+001                                                     F               0         X-component position of node 39 (blade 2, node 10), m
        116     4.34379882812E+001                                                     F               0         Y-component position of node 39 (blade 2, node 10), m
        117     1.44013946533E+002                                                     F               0         Z-component position of node 39 (blade 2, node 10), m
        118     1.28731222153E+001                                                     F               0         X-component position of node 40 (blade 2, node 11), m
        119     4.72804832458E+001                                                     F               0         Y-component position of node 40 (blade 2, node 11), m
        120     1.43593582153E+002                                                     F               0         Z-component position of node 40 (blade 2, node 11), m
        121     1.27460346222E+001                                                     F               0         X-component position of node 41 (blade 2, node 12), m
        122     5.11236572266E+001                                                     F               0         Y-component position of node 41 (blade 2, node 12), m
        123     1.43173126221E+002                                                     F               0         Z-component position of node 41 (blade 2, node 12), m
        124     1.26189727783E+001                                                     F               0         X-component position of node 42 (blade 2, node 13), m
        125     5.49661445618E+001                                                     F               0         Y-component position of node 42 (blade 2, node 13), m
        126     1.42752761841E+002                                                     F               0         Z-component position of node 42 (blade 2, node 13), m
        127     1.24919109344E+001                                                     F               0         X-component position of node 43 (blade 2, node 14), m
        128     5.88086318970E+001                                                     F               0         Y-component position of node 43 (blade 2, node 14), m
        129     1.42332382202E+002                                                     F               0         Z-component position of node 43 (blade 2, node 14), m
        130     1.23648262024E+001                                                     F               0         X-component position of node 44 (blade 2, node 15), m
        131     6.26518173218E+001                                                     F               0         Y-component position of node 44 (blade 2, node 15), m
        132     1.41911941528E+002                                                     F               0         Z-component position of node 44 (blade 2, node 15), m
        133     1.22377643585E+001                                                     F               0         X-component position of node 45 (blade 2, node 16), m
        134     6.64943008423E+001                                                     F               0         Y-component position of node 45 (blade 2, node 16), m
        135     1.41491577148E+002                                                     F               0         Z-component position of node 45 (blade 2, node 16), m
        136     1.21107015610E+001                                                     F               0         X-component position of node 46 (blade 2, node 17), m
        137     7.03367843628E+001                                                     F               0         Y-component position of node 46 (blade 2, node 17), m
        138     1.41071212769E+002                                                     F               0         Z-component position of node 46 (blade 2, node 17), m
        139     1.19836397171E+001                                                     F               0         X-component position of node 47 (blade 2, node 18), m
        140     7.41792678833E+001                                                     F               0         Y-component position of node 47 (blade 2, node 18), m
        141     1.40650848389E+002                                                     F               0         Z-component position of node 47 (blade 2, node 18), m
        142     1.18565540314E+001                                                     F               0         X-component position of node 48 (blade 2, node 19), m
        143     7.80224456787E+001                                                     F               0         Y-component position of node 48 (blade 2, node 19), m
        144     1.40230392456E+002                                                     F               0         Z-component position of node 48 (blade 2, node 19), m
        145     1.17294921875E+001                                                     F               0         X-component position of node 49 (blade 2, node 20), m
        146     8.18649368286E+001                                                     F               0         Y-component position of node 49 (blade 2, node 20), m
        147     1.39810028076E+002                                                     F               0         Z-component position of node 49 (blade 2, node 20), m
        148     1.16024303436E+001                                                     F               0         X-component position of node 50 (blade 2, node 21), m
        149     8.57074356079E+001                                                     F               0         Y-component position of node 50 (blade 2, node 21), m
        150     1.39389663696E+002                                                     F               0         Z-component position of node 50 (blade 2, node 21), m
        151     1.14753446579E+001                                                     F               0         X-component position of node 51 (blade 2, node 22), m
        152     8.95506134033E+001                                                     F               0         Y-component position of node 51 (blade 2, node 22), m
        153     1.38969223022E+002                                                     F               0         Z-component position of node 51 (blade 2, node 22), m
        154     1.13482837677E+001                                                     F               0         X-component position of node 52 (blade 2, node 23), m
        155     9.33930969238E+001                                                     F               0         Y-component position of node 52 (blade 2, node 23), m
        156     1.38548858643E+002                                                     F               0         Z-component position of node 52 (blade 2, node 23), m
        157     1.12212209702E+001                                                     F               0         X-component position of node 53 (blade 2, node 24), m
        158     9.72355804443E+001                                                     F               0         Y-component position of node 53 (blade 2, node 24), m
        159     1.38128479004E+002                                                     F               0         Z-component position of node 53 (blade 2, node 24), m
        160     1.10941591263E+001                                                     F               0         X-component position of node 54 (blade 2, node 25), m
        161     1.01078063965E+002                                                     F               0         Y-component position of node 54 (blade 2, node 25), m
        162     1.37708114624E+002                                                     F               0         Z-component position of node 54 (blade 2, node 25), m
        163     1.09670724869E+001                                                     F               0         X-component position of node 55 (blade 2, node 26), m
        164     1.04921257019E+002                                                     F               0         Y-component position of node 55 (blade 2, node 26), m
        165     1.37287673950E+002                                                     F               0         Z-component position of node 55 (blade 2, node 26), m
        166     1.08400096893E+001                                                     F               0         X-component position of node 56 (blade 2, node 27), m
        167     1.08763740540E+002                                                     F               0         Y-component position of node 56 (blade 2, node 27), m
        168     1.36867309570E+002                                                     F               0         Z-component position of node 56 (blade 2, node 27), m
        169     1.07322893143E+001                                                     F               0         X-component position of node 57 (blade 2, node 28), m
        170     1.12021331787E+002                                                     F               0         Y-component position of node 57 (blade 2, node 28), m
        171     1.36510925293E+002                                                     F               0         Z-component position of node 57 (blade 2, node 28), m
        172     1.58245153427E+001                                                     F               0         X-component position of node 58 (blade 3, node 1), m