
Linearized model: Predictions were generated on 07-Feb-2024 at 11:38:03 using OpenFAST, compiled as a 64-bit application using single precision at commit v3.5.1
 linked with  NWTC Subroutine Library; ElastoDyn; InflowWind; AeroDyn; ServoDyn; HydroDyn; MAP++ (<1.20.10>, <Oct-20-2023>)

Description from the FAST input file: CCT-9 Campign 4 model. Input files to be run with OpenFAST 3.5.0. GitHub branch from Lu Wang (https://github.com/luwang00/openfast/tree/dev) compiled on March 7, 2023.

Simulation information:
   Simulation time:                  1003.5000 s
   Rotor Speed:                         1.0400 rad/s
   Azimuth:                             4.6876 rad
   Wind Speed:                         12.0000 m/s
   Number of continuous states:        22
   Number of discrete states:           0
   Number of constraint states:         0
   Number of inputs:                 1890
   Number of outputs:                  24
   Jacobians included in this file?    No

Order of continuous states:
   Row/Column Operating Point                     Rotating Frame? Derivative Order Description
   ---------- ---------------                     --------------- ---------------- -----------
          1    1.230E+01                                 F               2         Platform horizontal surge translation DOF (internal DOF index = DOF_Sg), m
          2   -2.192E-01                                 F               2         Platform horizontal sway translation DOF (internal DOF index = DOF_Sw), m
          3   -2.610E-01                                 F               2         Platform vertical heave translation DOF (internal DOF index = DOF_Hv), m
          4    5.029E-02                                 F               2         Platform roll tilt rotation DOF (internal DOF index = DOF_R), rad
          5    1.570E-01                                 F               2         Platform pitch tilt rotation DOF (internal DOF index = DOF_P), rad
          6    9.848E-03                                 F               2         Platform yaw rotation DOF (internal DOF index = DOF_Y), rad
          7    1.084E+00                                 F               2         1st tower fore-aft bending mode DOF (internal DOF index = DOF_TFA1), m
          8    2.105E-01                                 F               2         1st tower side-to-side bending mode DOF (internal DOF index = DOF_TSS1), m
          9    1.618E-03                                 F               2         2nd tower fore-aft bending mode DOF (internal DOF index = DOF_TFA2), m
         10    9.023E-05                                 F               2         2nd tower side-to-side bending mode DOF (internal DOF index = DOF_TSS2), m
         11    3.117E+00                                 F               2         Variable speed generator DOF (internal DOF index = DOF_GeAz), rad
         12   -1.173E-03                                 F               2         First time derivative of Platform horizontal surge translation DOF (internal DOF index = DOF_Sg), m/s
         13   -5.770E-04                                 F               2         First time derivative of Platform horizontal sway translation DOF (internal DOF index = DOF_Sw), m/s
         14    8.970E-04                                 F               2         First time derivative of Platform vertical heave translation DOF (internal DOF index = DOF_Hv), m/s
         15    1.557E-03                                 F               2         First time derivative of Platform roll tilt rotation DOF (internal DOF index = DOF_R), rad/s
         16   -7.776E-05                                 F               2         First time derivative of Platform pitch tilt rotation DOF (internal DOF index = DOF_P), rad/s
         17   -2.464E-04                                 F               2         First time derivative of Platform yaw rotation DOF (internal DOF index = DOF_Y), rad/s
         18   -2.504E-04                                 F               2         First time derivative of 1st tower fore-aft bending mode DOF (internal DOF index = DOF_TFA1), m/s
         19    8.699E-03                                 F               2         First time derivative of 1st tower side-to-side bending mode DOF (internal DOF index = DOF_TSS1), m/s
         20    6.492E-07                                 F               2         First time derivative of 2nd tower fore-aft bending mode DOF (internal DOF index = DOF_TFA2), m/s
         21    6.745E-06                                 F               2         First time derivative of 2nd tower side-to-side bending mode DOF (internal DOF index = DOF_TSS2), m/s
         22    1.040E+00                                 F               2         First time derivative of Variable speed generator DOF (internal DOF index = DOF_GeAz), rad/s

Order of continuous state derivatives:
   Row/Column Operating Point                     Rotating Frame? Derivative Order Description
   ---------- ---------------                     --------------- ---------------- -----------
          1   -1.173E-03                                 F               2         First time derivative of Platform horizontal surge translation DOF (internal DOF index = DOF_Sg), m/s
          2   -5.770E-04                                 F               2         First time derivative of Platform horizontal sway translation DOF (internal DOF index = DOF_Sw), m/s
          3    8.970E-04                                 F               2         First time derivative of Platform vertical heave translation DOF (internal DOF index = DOF_Hv), m/s
          4    1.557E-03                                 F               2         First time derivative of Platform roll tilt rotation DOF (internal DOF index = DOF_R), rad/s
          5   -7.776E-05                                 F               2         First time derivative of Platform pitch tilt rotation DOF (internal DOF index = DOF_P), rad/s
          6   -2.464E-04                                 F               2         First time derivative of Platform yaw rotation DOF (internal DOF index = DOF_Y), rad/s
          7   -2.504E-04                                 F               2         First time derivative of 1st tower fore-aft bending mode DOF (internal DOF index = DOF_TFA1), m/s
          8    8.699E-03                                 F               2         First time derivative of 1st tower side-to-side bending mode DOF (internal DOF index = DOF_TSS1), m/s
          9    6.492E-07                                 F               2         First time derivative of 2nd tower fore-aft bending mode DOF (internal DOF index = DOF_TFA2), m/s
         10    6.745E-06                                 F               2         First time derivative of 2nd tower side-to-side bending mode DOF (internal DOF index = DOF_TSS2), m/s
         11    1.040E+00                                 F               2         First time derivative of Variable speed generator DOF (internal DOF index = DOF_GeAz), rad/s
         12    4.458E-04                                 F               2         First time derivative of First time derivative of Platform horizontal surge translation DOF (internal DOF index = DOF_Sg), m/s/s
         13    2.476E-04                                 F               2         First time derivative of First time derivative of Platform horizontal sway translation DOF (internal DOF index = DOF_Sw), m/s/s
         14    1.296E-03                                 F               2         First time derivative of First time derivative of Platform vertical heave translation DOF (internal DOF index = DOF_Hv), m/s/s
         15   -2.987E-04                                 F               2         First time derivative of First time derivative of Platform roll tilt rotation DOF (internal DOF index = DOF_R), rad/s/s
         16   -1.014E-06                                 F               2         First time derivative of First time derivative of Platform pitch tilt rotation DOF (internal DOF index = DOF_P), rad/s/s
         17    1.425E-04                                 F               2         First time derivative of First time derivative of Platform yaw rotation DOF (internal DOF index = DOF_Y), rad/s/s
         18   -5.975E-03                                 F               2         First time derivative of First time derivative of 1st tower fore-aft bending mode DOF (internal DOF index = DOF_TFA1), m/s/s
         19   -5.109E-04                                 F               2         First time derivative of First time derivative of 1st tower side-to-side bending mode DOF (internal DOF index = DOF_TSS1), m/s/s
         20   -4.250E-05                                 F               2         First time derivative of First time derivative of 2nd tower fore-aft bending mode DOF (internal DOF index = DOF_TFA2), m/s/s
         21   -1.820E-06                                 F               2         First time derivative of First time derivative of 2nd tower side-to-side bending mode DOF (internal DOF index = DOF_TSS2), m/s/s
         22    3.645E-04                                 F               2         First time derivative of First time derivative of Variable speed generator DOF (internal DOF index = DOF_GeAz), rad/s/s

Order of inputs:
     Column   Operating Point                     Rotating Frame? Derivative Order Description
   ---------- ---------------                     --------------- ---------------- -----------
          1    7.883E+01                                 F               0         Blade 1 X force, node 1, N
          2    2.821E+00                                 F               0         Blade 1 Y force, node 1, N
          3   -6.409E+01                                 F               0         Blade 1 Z force, node 1, N
          4    3.781E+02                                 F               0         Blade 1 X force, node 2, N
          5    1.021E+01                                 F               0         Blade 1 Y force, node 2, N
          6   -1.936E+02                                 F               0         Blade 1 Z force, node 2, N
          7    5.568E+02                                 F               0         Blade 1 X force, node 3, N
          8    1.138E+01                                 F               0         Blade 1 Y force, node 3, N
          9   -1.591E+02                                 F               0         Blade 1 Z force, node 3, N
         10    7.763E+02                                 F               0         Blade 1 X force, node 4, N
         11    1.363E+01                                 F               0         Blade 1 Y force, node 4, N
         12   -1.450E+02                                 F               0         Blade 1 Z force, node 4, N
         13    9.958E+02                                 F               0         Blade 1 X force, node 5, N
         14    1.588E+01                                 F               0         Blade 1 Y force, node 5, N
         15   -1.309E+02                                 F               0         Blade 1 Z force, node 5, N
         16    1.215E+03                                 F               0         Blade 1 X force, node 6, N
         17    1.813E+01                                 F               0         Blade 1 Y force, node 6, N
         18   -1.168E+02                                 F               0         Blade 1 Z force, node 6, N
         19    1.435E+03                                 F               0         Blade 1 X force, node 7, N
         20    2.037E+01                                 F               0         Blade 1 Y force, node 7, N
         21   -1.027E+02                                 F               0         Blade 1 Z force, node 7, N
         22    1.654E+03                                 F               0         Blade 1 X force, node 8, N
         23    2.262E+01                                 F               0         Blade 1 Y force, node 8, N
         24   -8.862E+01                                 F               0         Blade 1 Z force, node 8, N
         25    1.874E+03                                 F               0         Blade 1 X force, node 9, N
         26    2.487E+01                                 F               0         Blade 1 Y force, node 9, N
         27   -7.452E+01                                 F               0         Blade 1 Z force, node 9, N
         28    2.093E+03                                 F               0         Blade 1 X force, node 10, N
         29    2.712E+01                                 F               0         Blade 1 Y force, node 10, N
         30   -6.042E+01                                 F               0         Blade 1 Z force, node 10, N
         31    2.313E+03                                 F               0         Blade 1 X force, node 11, N
         32    2.937E+01                                 F               0         Blade 1 Y force, node 11, N
         33   -4.632E+01                                 F               0         Blade 1 Z force, node 11, N
         34    2.532E+03                                 F               0         Blade 1 X force, node 12, N
         35    3.162E+01                                 F               0         Blade 1 Y force, node 12, N
         36   -3.222E+01                                 F               0         Blade 1 Z force, node 12, N
         37    2.752E+03                                 F               0         Blade 1 X force, node 13, N
         38    3.387E+01                                 F               0         Blade 1 Y force, node 13, N
         39   -1.812E+01                                 F               0         Blade 1 Z force, node 13, N
         40    2.971E+03                                 F               0         Blade 1 X force, node 14, N
         41    3.612E+01                                 F               0         Blade 1 Y force, node 14, N
         42   -4.023E+00                                 F               0         Blade 1 Z force, node 14, N
         43    3.191E+03                                 F               0         Blade 1 X force, node 15, N
         44    3.837E+01                                 F               0         Blade 1 Y force, node 15, N
         45    1.008E+01                                 F               0         Blade 1 Z force, node 15, N
         46    3.410E+03                                 F               0         Blade 1 X force, node 16, N
         47    4.062E+01                                 F               0         Blade 1 Y force, node 16, N
         48    2.418E+01                                 F               0         Blade 1 Z force, node 16, N
         49    4.207E+03                                 F               0         Blade 1 X force, node 17, N
         50    4.983E+01                                 F               0         Blade 1 Y force, node 17, N
         51    3.961E+01                                 F               0         Blade 1 Z force, node 17, N
         52    3.206E+03                                 F               0         Blade 1 X force, node 18, N
         53    3.892E+01                                 F               0         Blade 1 Y force, node 18, N
         54   -2.512E+00                                 F               0         Blade 1 Z force, node 18, N
         55    3.922E+03                                 F               0         Blade 1 X force, node 19, N
         56    4.911E+01                                 F               0         Blade 1 Y force, node 19, N
         57   -5.471E+01                                 F               0         Blade 1 Z force, node 19, N
         58    3.333E+03                                 F               0         Blade 1 X force, node 20, N
         59    4.293E+01                                 F               0         Blade 1 Y force, node 20, N
         60   -8.729E+01                                 F               0         Blade 1 Z force, node 20, N
         61    4.906E+03                                 F               0         Blade 1 X force, node 21, N
         62    6.513E+01                                 F               0         Blade 1 Y force, node 21, N
         63   -1.952E+02                                 F               0         Blade 1 Z force, node 21, N
         64    4.317E+03                                 F               0         Blade 1 X force, node 22, N
         65    5.892E+01                                 F               0         Blade 1 Y force, node 22, N
         66   -2.271E+02                                 F               0         Blade 1 Z force, node 22, N
         67    4.423E+03                                 F               0         Blade 1 X force, node 23, N
         68    6.180E+01                                 F               0         Blade 1 Y force, node 23, N
         69   -2.823E+02                                 F               0         Blade 1 Z force, node 23, N
         70    4.607E+03                                 F               0         Blade 1 X force, node 24, N
         71    6.580E+01                                 F               0         Blade 1 Y force, node 24, N
         72   -3.430E+02                                 F               0         Blade 1 Z force, node 24, N
         73    4.711E+03                                 F               0         Blade 1 X force, node 25, N
         74    6.865E+01                                 F               0         Blade 1 Y force, node 25, N
         75   -3.976E+02                                 F               0         Blade 1 Z force, node 25, N
         76    4.841E+03                                 F               0         Blade 1 X force, node 26, N
         77    7.187E+01                                 F               0         Blade 1 Y force, node 26, N
         78   -4.539E+02                                 F               0         Blade 1 Z force, node 26, N
         79    5.789E+03                                 F               0         Blade 1 X force, node 27, N
         80    8.753E+01                                 F               0         Blade 1 Y force, node 27, N
         81   -5.973E+02                                 F               0         Blade 1 Z force, node 27, N
         82    4.284E+03                                 F               0         Blade 1 X force, node 28, N
         83    6.586E+01                                 F               0         Blade 1 Y force, node 28, N
         84   -4.793E+02                                 F               0         Blade 1 Z force, node 28, N
         85    5.233E+03                                 F               0         Blade 1 X force, node 29, N
         86    8.152E+01                                 F               0         Blade 1 Y force, node 29, N
         87   -6.222E+02                                 F               0         Blade 1 Z force, node 29, N
         88    4.446E+03                                 F               0         Blade 1 X force, node 30, N
         89    7.012E+01                                 F               0         Blade 1 Y force, node 30, N
         90   -5.583E+02                                 F               0         Blade 1 Z force, node 30, N
         91    6.412E+03                                 F               0         Blade 1 X force, node 31, N
         92    1.025E+02                                 F               0         Blade 1 Y force, node 31, N
         93   -8.534E+02                                 F               0         Blade 1 Z force, node 31, N
         94    5.623E+03                                 F               0         Blade 1 X force, node 32, N
         95    9.110E+01                                 F               0         Blade 1 Y force, node 32, N
         96   -7.890E+02                                 F               0         Blade 1 Z force, node 32, N
         97    5.752E+03                                 F               0         Blade 1 X force, node 33, N
         98    9.427E+01                                 F               0         Blade 1 Y force, node 33, N
         99   -8.442E+02                                 F               0         Blade 1 Z force, node 33, N
        100    5.882E+03                                 F               0         Blade 1 X force, node 34, N
        101    9.745E+01                                 F               0         Blade 1 Y force, node 34, N
        102   -8.995E+02                                 F               0         Blade 1 Z force, node 34, N
        103    6.012E+03                                 F               0         Blade 1 X force, node 35, N
        104    1.006E+02                                 F               0         Blade 1 Y force, node 35, N
        105   -9.546E+02                                 F               0         Blade 1 Z force, node 35, N
        106    6.141E+03                                 F               0         Blade 1 X force, node 36, N
        107    1.038E+02                                 F               0         Blade 1 Y force, node 36, N
        108   -1.009E+03                                 F               0         Blade 1 Z force, node 36, N
        109    7.336E+03                                 F               0         Blade 1 X force, node 37, N
        110    1.252E+02                                 F               0         Blade 1 Y force, node 37, N
        111   -1.248E+03                                 F               0         Blade 1 Z force, node 37, N
        112    5.337E+03                                 F               0         Blade 1 X force, node 38, N
        113    9.191E+01                                 F               0         Blade 1 Y force, node 38, N
        114   -9.360E+02                                 F               0         Blade 1 Z force, node 38, N
        115    6.534E+03                                 F               0         Blade 1 X force, node 39, N
        116    1.133E+02                                 F               0         Blade 1 Y force, node 39, N
        117   -1.174E+03                                 F               0         Blade 1 Z force, node 39, N
        118    5.565E+03                                 F               0         Blade 1 X force, node 40, N
        119    9.723E+01                                 F               0         Blade 1 Y force, node 40, N
        120   -1.023E+03                                 F               0         Blade 1 Z force, node 40, N
        121    7.896E+03                                 F               0         Blade 1 X force, node 41, N
        122    1.390E+02                                 F               0         Blade 1 Y force, node 41, N
        123   -1.489E+03                                 F               0         Blade 1 Z force, node 41, N
        124    6.926E+03                                 F               0         Blade 1 X force, node 42, N
        125    1.229E+02                                 F               0         Blade 1 Y force, node 42, N
        126   -1.338E+03                                 F               0         Blade 1 Z force, node 42, N
        127    7.056E+03                                 F               0         Blade 1 X force, node 43, N
        128    1.260E+02                                 F               0         Blade 1 Y force, node 43, N
        129   -1.393E+03                                 F               0         Blade 1 Z force, node 43, N
        130    7.224E+03                                 F               0         Blade 1 X force, node 44, N
        131    1.299E+02                                 F               0         Blade 1 Y force, node 44, N
        132   -1.455E+03                                 F               0         Blade 1 Z force, node 44, N
        133    7.278E+03                                 F               0         Blade 1 X force, node 45, N
        134    1.317E+02                                 F               0         Blade 1 Y force, node 45, N
        135   -1.494E+03                                 F               0         Blade 1 Z force, node 45, N
        136    7.447E+03                                 F               0         Blade 1 X force, node 46, N
        137    1.355E+02                                 F               0         Blade 1 Y force, node 46, N
        138   -1.556E+03                                 F               0         Blade 1 Z force, node 46, N
        139    8.907E+03                                 F               0         Blade 1 X force, node 47, N
        140    1.631E+02                                 F               0         Blade 1 Y force, node 47, N
        141   -1.894E+03                                 F               0         Blade 1 Z force, node 47, N
        142    6.380E+03                                 F               0         Blade 1 X force, node 48, N
        143    1.175E+02                                 F               0         Blade 1 Y force, node 48, N
        144   -1.380E+03                                 F               0         Blade 1 Z force, node 48, N
        145    7.839E+03                                 F               0         Blade 1 X force, node 49, N
        146    1.450E+02                                 F               0         Blade 1 Y force, node 49, N
        147   -1.718E+03                                 F               0         Blade 1 Z force, node 49, N
        148    6.702E+03                                 F               0         Blade 1 X force, node 50, N
        149    1.245E+02                                 F               0         Blade 1 Y force, node 50, N
        150   -1.488E+03                                 F               0         Blade 1 Z force, node 50, N
        151    9.367E+03                                 F               0         Blade 1 X force, node 51, N
        152    1.749E+02                                 F               0         Blade 1 Y force, node 51, N
        153   -2.110E+03                                 F               0         Blade 1 Z force, node 51, N
        154    8.234E+03                                 F               0         Blade 1 X force, node 52, N
        155    1.545E+02                                 F               0         Blade 1 Y force, node 52, N
        156   -1.881E+03                                 F               0         Blade 1 Z force, node 52, N
        157    8.367E+03                                 F               0         Blade 1 X force, node 53, N
        158    1.577E+02                                 F               0         Blade 1 Y force, node 53, N
        159   -1.935E+03                                 F               0         Blade 1 Z force, node 53, N
        160    8.593E+03                                 F               0         Blade 1 X force, node 54, N
        161    1.627E+02                                 F               0         Blade 1 Y force, node 54, N
        162   -2.011E+03                                 F               0         Blade 1 Z force, node 54, N
        163    8.539E+03                                 F               0         Blade 1 X force, node 55, N
        164    1.623E+02                                 F               0         Blade 1 Y force, node 55, N
        165   -2.022E+03                                 F               0         Blade 1 Z force, node 55, N
        166    8.765E+03                                 F               0         Blade 1 X force, node 56, N
        167    1.673E+02                                 F               0         Blade 1 Y force, node 56, N
        168   -2.098E+03                                 F               0         Blade 1 Z force, node 56, N
        169    1.051E+04                                 F               0         Blade 1 X force, node 57, N
        170    2.013E+02                                 F               0         Blade 1 Y force, node 57, N
        171   -2.543E+03                                 F               0         Blade 1 Z force, node 57, N
        172    7.420E+03                                 F               0         Blade 1 X force, node 58, N
        173    1.427E+02                                 F               0         Blade 1 Y force, node 58, N
        174   -1.815E+03                                 F               0         Blade 1 Z force, node 58, N
        175    9.163E+03                                 F               0         Blade 1 X force, node 59, N
        176    1.768E+02                                 F               0         Blade 1 Y force, node 59, N
        177   -2.260E+03                                 F               0         Blade 1 Z force, node 59, N
        178    7.873E+03                                 F               0         Blade 1 X force, node 60, N
        179    1.524E+02                                 F               0         Blade 1 Y force, node 60, N
        180   -1.958E+03                                 F               0         Blade 1 Z force, node 60, N
        181    1.085E+04                                 F               0         Blade 1 X force, node 61, N
        182    2.108E+02                                 F               0         Blade 1 Y force, node 61, N
        183   -2.724E+03                                 F               0         Blade 1 Z force, node 61, N
        184    9.559E+03                                 F               0         Blade 1 X force, node 62, N