
Linearized model: Predictions were generated on 13-Feb-2024 at 11:29:37 using OpenFAST, compiled as a 64-bit application using single precision at commit v3.5.1
 linked with  NWTC Subroutine Library; ElastoDyn; InflowWind; AeroDyn; ServoDyn; HydroDyn; MAP++ (<1.20.10>, <Oct-20-2023>)

Description from the FAST input file: CCT-9 Campign 4 model. Input files to be run with OpenFAST 3.5.0. GitHub branch from Lu Wang (https://github.com/luwang00/openfast/tree/dev) compiled on March 7, 2023.

Simulation information:
   Simulation time:                  1215.2500 s
   Rotor Speed:                         0.7917 rad/s
   Azimuth:                             3.5029 rad
   Wind Speed:                         16.0000 m/s
   Number of continuous states:        14
   Number of discrete states:           0
   Number of constraint states:         0
   Number of inputs:                 1890
   Number of outputs:                  25
   Jacobians included in this file?    No

Order of continuous states:
   Row/Column Operating Point                                                   Rotating Frame? Derivative Order Description
   ---------- ---------------                                                   --------------- ---------------- -----------
          1     8.64548778534E+000                                                     F               2         Platform horizontal surge translation DOF (internal DOF index = DOF_Sg), m
          2    -6.18514358997E-001                                                     F               2         Platform horizontal sway translation DOF (internal DOF index = DOF_Sw), m
          3    -1.37247964740E-001                                                     F               2         Platform vertical heave translation DOF (internal DOF index = DOF_Hv), m
          4     5.16860820353E-002                                                     F               2         Platform roll tilt rotation DOF (internal DOF index = DOF_R), rad
          5     1.13035753369E-001                                                     F               2         Platform pitch tilt rotation DOF (internal DOF index = DOF_P), rad
          6     5.27448544744E-004                                                     F               2         Platform yaw rotation DOF (internal DOF index = DOF_Y), rad
          7     1.93209958076E+000                                                     F               2         Variable speed generator DOF (internal DOF index = DOF_GeAz), rad
          8    -1.91678904230E-004                                                     F               2         First time derivative of Platform horizontal surge translation DOF (internal DOF index = DOF_Sg), m/s
          9    -1.12183282909E-004                                                     F               2         First time derivative of Platform horizontal sway translation DOF (internal DOF index = DOF_Sw), m/s
         10    -5.50673017278E-003                                                     F               2         First time derivative of Platform vertical heave translation DOF (internal DOF index = DOF_Hv), m/s
         11     3.00656774925E-005                                                     F               2         First time derivative of Platform roll tilt rotation DOF (internal DOF index = DOF_R), rad/s
         12    -1.35421905725E-005                                                     F               2         First time derivative of Platform pitch tilt rotation DOF (internal DOF index = DOF_P), rad/s
         13     1.01306352462E-006                                                     F               2         First time derivative of Platform yaw rotation DOF (internal DOF index = DOF_Y), rad/s
         14     7.91685879230E-001                                                     F               2         First time derivative of Variable speed generator DOF (internal DOF index = DOF_GeAz), rad/s

Order of continuous state derivatives:
   Row/Column Operating Point                                                   Rotating Frame? Derivative Order Description
   ---------- ---------------                                                   --------------- ---------------- -----------
          1    -1.91678904230E-004                                                     F               2         First time derivative of Platform horizontal surge translation DOF (internal DOF index = DOF_Sg), m/s
          2    -1.12183282909E-004                                                     F               2         First time derivative of Platform horizontal sway translation DOF (internal DOF index = DOF_Sw), m/s
          3    -5.50673017278E-003                                                     F               2         First time derivative of Platform vertical heave translation DOF (internal DOF index = DOF_Hv), m/s
          4     3.00656774925E-005                                                     F               2         First time derivative of Platform roll tilt rotation DOF (internal DOF index = DOF_R), rad/s
          5    -1.35421905725E-005                                                     F               2         First time derivative of Platform pitch tilt rotation DOF (internal DOF index = DOF_P), rad/s
          6     1.01306352462E-006                                                     F               2         First time derivative of Platform yaw rotation DOF (internal DOF index = DOF_Y), rad/s
          7     7.91685879230E-001                                                     F               2         First time derivative of Variable speed generator DOF (internal DOF index = DOF_GeAz), rad/s
          8     1.91800150787E-004                                                     F               2         First time derivative of First time derivative of Platform horizontal surge translation DOF (internal DOF index = DOF_Sg), m/s/s
          9     8.62602246343E-005                                                     F               2         First time derivative of First time derivative of Platform horizontal sway translation DOF (internal DOF index = DOF_Sw), m/s/s
         10    -1.40074163210E-003                                                     F               2         First time derivative of First time derivative of Platform vertical heave translation DOF (internal DOF index = DOF_Hv), m/s/s
         11    -7.33248725737E-007                                                     F               2         First time derivative of First time derivative of Platform roll tilt rotation DOF (internal DOF index = DOF_R), rad/s/s
         12     4.55737108496E-006                                                     F               2         First time derivative of First time derivative of Platform pitch tilt rotation DOF (internal DOF index = DOF_P), rad/s/s
         13    -2.04602147278E-005                                                     F               2         First time derivative of First time derivative of Platform yaw rotation DOF (internal DOF index = DOF_Y), rad/s/s
         14     3.89231398003E-004                                                     F               2         First time derivative of First time derivative of Variable speed generator DOF (internal DOF index = DOF_GeAz), rad/s/s

Order of inputs:
     Column   Operating Point                                                   Rotating Frame? Derivative Order Description
   ---------- ---------------                                                   --------------- ---------------- -----------
          1     1.58456420898E+002                                                     F               0         Blade 1 X force, node 1, N
          2    -5.19695549011E+001                                                     F               0         Blade 1 Y force, node 1, N
          3    -5.88402328491E+001                                                     F               0         Blade 1 Z force, node 1, N
          4     6.81993530273E+002                                                     F               0         Blade 1 X force, node 2, N
          5    -7.19945526123E+001                                                     F               0         Blade 1 Y force, node 2, N
          6    -1.85323501587E+002                                                     F               0         Blade 1 Z force, node 2, N
          7     8.89183105469E+002                                                     F               0         Blade 1 X force, node 3, N
          8     1.09521018982E+002                                                     F               0         Blade 1 Y force, node 3, N
          9    -1.50546752930E+002                                                     F               0         Blade 1 Z force, node 3, N
         10     1.16880920410E+003                                                     F               0         Blade 1 X force, node 4, N
         11     2.84595367432E+002                                                     F               0         Blade 1 Y force, node 4, N
         12    -1.34913879395E+002                                                     F               0         Blade 1 Z force, node 4, N
         13     1.44844616699E+003                                                     F               0         Blade 1 X force, node 5, N
         14     4.59673583984E+002                                                     F               0         Blade 1 Y force, node 5, N
         15    -1.19281745911E+002                                                     F               0         Blade 1 Z force, node 5, N
         16     1.72807519531E+003                                                     F               0         Blade 1 X force, node 6, N
         17     6.34749816895E+002                                                     F               0         Blade 1 Y force, node 6, N
         18    -1.03648696899E+002                                                     F               0         Blade 1 Z force, node 6, N
         19     2.00769091797E+003                                                     F               0         Blade 1 X force, node 7, N
         20     8.09820678711E+002                                                     F               0         Blade 1 Y force, node 7, N
         21    -8.80150680542E+001                                                     F               0         Blade 1 Z force, node 7, N
         22     2.28731689453E+003                                                     F               0         Blade 1 X force, node 8, N
         23     9.84895019531E+002                                                     F               0         Blade 1 Y force, node 8, N
         24    -7.23821868896E+001                                                     F               0         Blade 1 Z force, node 8, N
         25     2.56694311523E+003                                                     F               0         Blade 1 X force, node 9, N
         26     1.15996936035E+003                                                     F               0         Blade 1 Y force, node 9, N
         27    -5.67493209839E+001                                                     F               0         Blade 1 Z force, node 9, N
         28     2.84656909180E+003                                                     F               0         Blade 1 X force, node 10, N
         29     1.33504370117E+003                                                     F               0         Blade 1 Y force, node 10, N
         30    -4.11164512634E+001                                                     F               0         Blade 1 Z force, node 10, N
         31     3.12619506836E+003                                                     F               0         Blade 1 X force, node 11, N
         32     1.51011828613E+003                                                     F               0         Blade 1 Y force, node 11, N
         33    -2.54835777283E+001                                                     F               0         Blade 1 Z force, node 11, N
         34     3.40584521484E+003                                                     F               0         Blade 1 X force, node 12, N
         35     1.68520446777E+003                                                     F               0         Blade 1 Y force, node 12, N
         36    -9.85069942474E+000                                                     F               0         Blade 1 Z force, node 12, N
         37     3.68547412109E+003                                                     F               0         Blade 1 X force, node 13, N
         38     1.86028063965E+003                                                     F               0         Blade 1 Y force, node 13, N
         39     5.78235006332E+000                                                     F               0         Blade 1 Z force, node 13, N
         40     3.96507690430E+003                                                     F               0         Blade 1 X force, node 14, N
         41     2.03534362793E+003                                                     F               0         Blade 1 Y force, node 14, N
         42     2.14152622223E+001                                                     F               0         Blade 1 Z force, node 14, N
         43     4.24473095703E+003                                                     F               0         Blade 1 X force, node 15, N
         44     2.21043286133E+003                                                     F               0         Blade 1 Y force, node 15, N
         45     3.70484085083E+001                                                     F               0         Blade 1 Z force, node 15, N
         46     4.52432763672E+003                                                     F               0         Blade 1 X force, node 16, N
         47     2.38549169922E+003                                                     F               0         Blade 1 Y force, node 16, N
         48     5.26809349060E+001                                                     F               0         Blade 1 Z force, node 16, N
         49     5.56489013672E+003                                                     F               0         Blade 1 X force, node 17, N
         50     2.95941235352E+003                                                     F               0         Blade 1 Y force, node 17, N
         51     7.61154861450E+001                                                     F               0         Blade 1 Z force, node 17, N
         52     4.20641015625E+003                                                     F               0         Blade 1 X force, node 18, N
         53     2.19381860352E+003                                                     F               0         Blade 1 Y force, node 18, N
         54     3.82101669312E+001                                                     F               0         Blade 1 Z force, node 18, N
         55     5.10027294922E+003                                                     F               0         Blade 1 X force, node 19, N
         56     2.58721704102E+003                                                     F               0         Blade 1 Y force, node 19, N
         57     1.37348632812E+001                                                     F               0         Blade 1 Z force, node 19, N
         58     4.29998339844E+003                                                     F               0         Blade 1 X force, node 20, N
         59     2.12325073242E+003                                                     F               0         Blade 1 Y force, node 20, N
         60    -1.43944377899E+001                                                     F               0         Blade 1 Z force, node 20, N
         61     6.26859912109E+003                                                     F               0         Blade 1 X force, node 21, N
         62     3.00073559570E+003                                                     F               0         Blade 1 Y force, node 21, N
         63    -6.33381195068E+001                                                     F               0         Blade 1 Z force, node 21, N
         64     5.46142138672E+003                                                     F               0         Blade 1 X force, node 22, N
         65     2.53667895508E+003                                                     F               0         Blade 1 Y force, node 22, N
         66    -8.99618148804E+001                                                     F               0         Blade 1 Z force, node 22, N
         67     5.54487597656E+003                                                     F               0         Blade 1 X force, node 23, N
         68     2.50517431641E+003                                                     F               0         Blade 1 Y force, node 23, N
         69    -1.22802276611E+002                                                     F               0         Blade 1 Z force, node 23, N
         70     5.72542529297E+003                                                     F               0         Blade 1 X force, node 24, N
         71     2.51687475586E+003                                                     F               0         Blade 1 Y force, node 24, N
         72    -1.58090148926E+002                                                     F               0         Blade 1 Z force, node 24, N
         73     5.80055908203E+003                                                     F               0         Blade 1 X force, node 25, N
         74     2.48231958008E+003                                                     F               0         Blade 1 Y force, node 25, N
         75    -1.90428817749E+002                                                     F               0         Blade 1 Z force, node 25, N
         76     5.90698974609E+003                                                     F               0         Blade 1 X force, node 26, N
         77     2.46177148438E+003                                                     F               0         Blade 1 Y force, node 26, N
         78    -2.23520217896E+002                                                     F               0         Blade 1 Z force, node 26, N
         79     6.99851806641E+003                                                     F               0         Blade 1 X force, node 27, N
         80     2.83641406250E+003                                                     F               0         Blade 1 Y force, node 27, N
         81    -3.00763732910E+002                                                     F               0         Blade 1 Z force, node 27, N
         82     5.13020507812E+003                                                     F               0         Blade 1 X force, node 28, N
         83     2.02226611328E+003                                                     F               0         Blade 1 Y force, node 28, N
         84    -2.45972091675E+002                                                     F               0         Blade 1 Z force, node 28, N
         85     6.21614599609E+003                                                     F               0         Blade 1 X force, node 29, N
         86     2.39286816406E+003                                                     F               0         Blade 1 Y force, node 29, N
         87    -3.23770507812E+002                                                     F               0         Blade 1 Z force, node 29, N
         88     5.24025341797E+003                                                     F               0         Blade 1 X force, node 30, N
         89     1.97035461426E+003                                                     F               0         Blade 1 Y force, node 30, N
         90    -2.93920227051E+002                                                     F               0         Blade 1 Z force, node 30, N
         91     7.48797753906E+003                                                     F               0         Blade 1 X force, node 31, N
         92     2.73960888672E+003                                                     F               0         Blade 1 Y force, node 31, N
         93    -4.53980133057E+002                                                     F               0         Blade 1 Z force, node 31, N
         94     6.49985205078E+003                                                     F               0         Blade 1 X force, node 32, N
         95     2.31449511719E+003                                                     F               0         Blade 1 Y force, node 32, N
         96    -4.22548645020E+002                                                     F               0         Blade 1 Z force, node 32, N
         97     6.58632177734E+003                                                     F               0         Blade 1 X force, node 33, N
         98     2.28652807617E+003                                                     F               0         Blade 1 Y force, node 33, N
         99    -4.54481872559E+002                                                     F               0         Blade 1 Z force, node 33, N
        100     6.67193750000E+003                                                     F               0         Blade 1 X force, node 34, N
        101     2.25856713867E+003                                                     F               0         Blade 1 Y force, node 34, N
        102    -4.86220581055E+002                                                     F               0         Blade 1 Z force, node 34, N
        103     6.74736914062E+003                                                     F               0         Blade 1 X force, node 35, N
        104     2.22828930664E+003                                                     F               0         Blade 1 Y force, node 35, N
        105    -5.16711120605E+002                                                     F               0         Blade 1 Z force, node 35, N
        106     6.81846142578E+003                                                     F               0         Blade 1 X force, node 36, N
        107     2.19683789062E+003                                                     F               0         Blade 1 Y force, node 36, N
        108    -5.46752929688E+002                                                     F               0         Blade 1 Z force, node 36, N
        109     8.05342431641E+003                                                     F               0         Blade 1 X force, node 37, N
        110     2.52747534180E+003                                                     F               0         Blade 1 Y force, node 37, N
        111    -6.75898559570E+002                                                     F               0         Blade 1 Z force, node 37, N
        112     5.77677246094E+003                                                     F               0         Blade 1 X force, node 38, N
        113     1.76850390625E+003                                                     F               0         Blade 1 Y force, node 38, N
        114    -5.04740020752E+002                                                     F               0         Blade 1 Z force, node 38, N
        115     6.98197021484E+003                                                     F               0         Blade 1 X force, node 39, N
        116     2.09358178711E+003                                                     F               0         Blade 1 Y force, node 39, N
        117    -6.29693542480E+002                                                     F               0         Blade 1 Z force, node 39, N
        118     5.87263769531E+003                                                     F               0         Blade 1 X force, node 40, N
        119     1.72427038574E+003                                                     F               0         Blade 1 Y force, node 40, N
        120    -5.46066528320E+002                                                     F               0         Blade 1 Z force, node 40, N
        121     8.20715039062E+003                                                     F               0         Blade 1 X force, node 41, N
        122     2.35151269531E+003                                                     F               0         Blade 1 Y force, node 41, N
        123    -7.89201538086E+002                                                     F               0         Blade 1 Z force, node 41, N
        124     7.08489160156E+003                                                     F               0         Blade 1 X force, node 42, N
        125     1.98177990723E+003                                                     F               0         Blade 1 Y force, node 42, N
        126    -7.02861694336E+002                                                     F               0         Blade 1 Z force, node 42, N
        127     7.11147314453E+003                                                     F               0         Blade 1 X force, node 43, N
        128     1.94424035645E+003                                                     F               0         Blade 1 Y force, node 43, N
        129    -7.25638549805E+002                                                     F               0         Blade 1 Z force, node 43, N
        130     7.17235400391E+003                                                     F               0         Blade 1 X force, node 44, N
        131     1.91639099121E+003                                                     F               0         Blade 1 Y force, node 44, N
        132    -7.51775207520E+002                                                     F               0         Blade 1 Z force, node 44, N
        133     7.10695410156E+003                                                     F               0         Blade 1 X force, node 45, N
        134     1.85751171875E+003                                                     F               0         Blade 1 Y force, node 45, N
        135    -7.63461608887E+002                                                     F               0         Blade 1 Z force, node 45, N
        136     7.15083349609E+003                                                     F               0         Blade 1 X force, node 46, N
        137     1.82824475098E+003                                                     F               0         Blade 1 Y force, node 46, N
        138    -7.86417053223E+002                                                     F               0         Blade 1 Z force, node 46, N
        139     8.40218554688E+003                                                     F               0         Blade 1 X force, node 47, N
        140     2.09726196289E+003                                                     F               0         Blade 1 Y force, node 47, N
        141    -9.46835144043E+002                                                     F               0         Blade 1 Z force, node 47, N
        142     5.90867333984E+003                                                     F               0         Blade 1 X force, node 48, N
        143     1.44133447266E+003                                                     F               0         Blade 1 Y force, node 48, N
        144    -6.80855590820E+002                                                     F               0         Blade 1 Z force, node 48, N
        145     7.14685937500E+003                                                     F               0         Blade 1 X force, node 49, N
        146     1.71005371094E+003                                                     F               0         Blade 1 Y force, node 49, N
        147    -8.38451538086E+002                                                     F               0         Blade 1 Z force, node 49, N
        148     6.01544482422E+003                                                     F               0         Blade 1 X force, node 50, N
        149     1.41089001465E+003                                                     F               0         Blade 1 Y force, node 50, N
        150    -7.18455139160E+002                                                     F               0         Blade 1 Z force, node 50, N
        151     8.25392773438E+003                                                     F               0         Blade 1 X force, node 51, N
        152     1.89147326660E+003                                                     F               0         Blade 1 Y force, node 51, N
        153    -1.00570947266E+003                                                     F               0         Blade 1 Z force, node 51, N
        154     7.11818554688E+003                                                     F               0         Blade 1 X force, node 52, N
        155     1.59444543457E+003                                                     F               0         Blade 1 Y force, node 52, N
        156    -8.83785339355E+002                                                     F               0         Blade 1 Z force, node 52, N
        157     7.10589306641E+003                                                     F               0         Blade 1 X force, node 53, N
        158     1.55714953613E+003                                                     F               0         Blade 1 Y force, node 53, N