
Linearized model: Predictions were generated on 13-Feb-2024 at 12:12:09 using OpenFAST, compiled as a 64-bit application using single precision at commit v3.5.1
 linked with  NWTC Subroutine Library; ElastoDyn; InflowWind; AeroDyn; ServoDyn; HydroDyn; MAP++ (<1.20.10>, <Oct-20-2023>)

Description from the FAST input file: CCT-9 Campign 4 model. Input files to be run with OpenFAST 3.5.0. GitHub branch from Lu Wang (https://github.com/luwang00/openfast/tree/dev) compiled on March 7, 2023.

Simulation information:
   Simulation time:                   771.1000 s
   Rotor Speed:                         0.7920 rad/s
   Azimuth:                             0.5262 rad
   Wind Speed:                         24.0000 m/s
   Number of continuous states:         0
   Number of discrete states:           0
   Number of constraint states:         0
   Number of inputs:                  303
   Number of outputs:                   1
   Jacobians included in this file?    No

Order of inputs:
     Column   Operating Point                                                   Rotating Frame? Derivative Order Description
   ---------- ---------------                                                   --------------- ---------------- -----------
          1    -1.08005075455E+001                                                     F               0         X-component position of node 1 (hub), m
          2     0.00000000000E+000                                                     F               0         Y-component position of node 1 (hub), m
          3     1.49740173340E+002                                                     F               0         Z-component position of node 1 (hub), m
          4     1.17627515793E+001                                                     F               0         X-component position of node 2 (blade 1, node 1), m
          5    -1.22780780792E+001                                                     F               0         Y-component position of node 2 (blade 1, node 1), m
          6     1.54283050537E+002                                                     F               0         Z-component position of node 2 (blade 1, node 1), m
          7     1.19903831482E+001                                                     F               0         X-component position of node 3 (blade 1, node 2), m
          8    -1.30146732330E+001                                                     F               0         Y-component position of node 3 (blade 1, node 2), m
          9     1.55372802734E+002                                                     F               0         Z-component position of node 3 (blade 1, node 2), m
         10     1.50857801437E+001                                                     F               0         X-component position of node 4 (blade 1, node 3), m
         11    -2.30310916901E+001                                                     F               0         Y-component position of node 4 (blade 1, node 3), m
         12     1.70191711426E+002                                                     F               0         Z-component position of node 4 (blade 1, node 3), m
         13     1.57452745438E+001                                                     F               0         X-component position of node 5 (blade 1, node 4), m
         14    -2.51651477814E+001                                                     F               0         Y-component position of node 5 (blade 1, node 4), m
         15     1.73348968506E+002                                                     F               0         Z-component position of node 5 (blade 1, node 4), m
         16     1.64048919678E+001                                                     F               0         X-component position of node 6 (blade 1, node 5), m
         17    -2.72996101379E+001                                                     F               0         Y-component position of node 6 (blade 1, node 5), m
         18     1.76506820679E+002                                                     F               0         Z-component position of node 6 (blade 1, node 5), m
         19     1.70643863678E+001                                                     F               0         X-component position of node 7 (blade 1, node 6), m
         20    -2.94336757660E+001                                                     F               0         Y-component position of node 7 (blade 1, node 6), m
         21     1.79664077759E+002                                                     F               0         Z-component position of node 7 (blade 1, node 6), m
         22     1.77238845825E+001                                                     F               0         X-component position of node 8 (blade 1, node 7), m
         23    -3.15677490234E+001                                                     F               0         Y-component position of node 8 (blade 1, node 7), m
         24     1.82821365356E+002                                                     F               0         Z-component position of node 8 (blade 1, node 7), m
         25     1.83834991455E+001                                                     F               0         X-component position of node 9 (blade 1, node 8), m
         26    -3.37022018433E+001                                                     F               0         Y-component position of node 9 (blade 1, node 8), m
         27     1.85979202271E+002                                                     F               0         Z-component position of node 9 (blade 1, node 8), m
         28     1.90429954529E+001                                                     F               0         X-component position of node 10 (blade 1, node 9), m
         29    -3.58362770081E+001                                                     F               0         Y-component position of node 10 (blade 1, node 9), m
         30     1.89136489868E+002                                                     F               0         Z-component position of node 10 (blade 1, node 9), m
         31     1.97024917603E+001                                                     F               0         X-component position of node 11 (blade 1, node 10), m
         32    -3.79703407288E+001                                                     F               0         Y-component position of node 11 (blade 1, node 10), m
         33     1.92293746948E+002                                                     F               0         Z-component position of node 11 (blade 1, node 10), m
         34     2.03619899750E+001                                                     F               0         X-component position of node 12 (blade 1, node 11), m
         35    -4.01044158936E+001                                                     F               0         Y-component position of node 12 (blade 1, node 11), m
         36     1.95451034546E+002                                                     F               0         Z-component position of node 12 (blade 1, node 11), m
         37     2.10216045380E+001                                                     F               0         X-component position of node 13 (blade 1, node 12), m
         38    -4.22388610840E+001                                                     F               0         Y-component position of node 13 (blade 1, node 12), m
         39     1.98608856201E+002                                                     F               0         Z-component position of node 13 (blade 1, node 12), m
         40     2.16811008453E+001                                                     F               0         X-component position of node 14 (blade 1, node 13), m
         41    -4.43729362488E+001                                                     F               0         Y-component position of node 14 (blade 1, node 13), m
         42     2.01766143799E+002                                                     F               0         Z-component position of node 14 (blade 1, node 13), m
         43     2.23405971527E+001                                                     F               0         X-component position of node 15 (blade 1, node 14), m
         44    -4.65069999695E+001                                                     F               0         Y-component position of node 15 (blade 1, node 14), m
         45     2.04923400879E+002                                                     F               0         Z-component position of node 15 (blade 1, node 14), m
         46     2.30002136230E+001                                                     F               0         X-component position of node 16 (blade 1, node 15), m
         47    -4.86414604187E+001                                                     F               0         Y-component position of node 16 (blade 1, node 15), m
         48     2.08081253052E+002                                                     F               0         Z-component position of node 16 (blade 1, node 15), m
         49     2.36597099304E+001                                                     F               0         X-component position of node 17 (blade 1, node 16), m
         50    -5.07755279541E+001                                                     F               0         Y-component position of node 17 (blade 1, node 16), m
         51     2.11238525391E+002                                                     F               0         Z-component position of node 17 (blade 1, node 16), m
         52     2.43192081451E+001                                                     F               0         X-component position of node 18 (blade 1, node 17), m
         53    -5.29096031189E+001                                                     F               0         Y-component position of node 18 (blade 1, node 17), m
         54     2.14395797729E+002                                                     F               0         Z-component position of node 18 (blade 1, node 17), m
         55     2.49787044525E+001                                                     F               0         X-component position of node 19 (blade 1, node 18), m
         56    -5.50436706543E+001                                                     F               0         Y-component position of node 19 (blade 1, node 18), m
         57     2.17553070068E+002                                                     F               0         Z-component position of node 19 (blade 1, node 18), m
         58     2.56383171082E+001                                                     F               0         X-component position of node 20 (blade 1, node 19), m
         59    -5.71781158447E+001                                                     F               0         Y-component position of node 20 (blade 1, node 19), m
         60     2.20710906982E+002                                                     F               0         Z-component position of node 20 (blade 1, node 19), m
         61     2.62978153229E+001                                                     F               0         X-component position of node 21 (blade 1, node 20), m
         62    -5.93121910095E+001                                                     F               0         Y-component position of node 21 (blade 1, node 20), m
         63     2.23868179321E+002                                                     F               0         Z-component position of node 21 (blade 1, node 20), m
         64     2.69573116302E+001                                                     F               0         X-component position of node 22 (blade 1, node 21), m
         65    -6.14462623596E+001                                                     F               0         Y-component position of node 22 (blade 1, node 21), m
         66     2.27025451660E+002                                                     F               0         Z-component position of node 22 (blade 1, node 21), m
         67     2.76169281006E+001                                                     F               0         X-component position of node 23 (blade 1, node 22), m
         68    -6.35807151794E+001                                                     F               0         Y-component position of node 23 (blade 1, node 22), m
         69     2.30183303833E+002                                                     F               0         Z-component position of node 23 (blade 1, node 22), m
         70     2.82764244080E+001                                                     F               0         X-component position of node 24 (blade 1, node 23), m
         71    -6.57147903442E+001                                                     F               0         Y-component position of node 24 (blade 1, node 23), m
         72     2.33340576172E+002                                                     F               0         Z-component position of node 24 (blade 1, node 23), m
         73     2.89359207153E+001                                                     F               0         X-component position of node 25 (blade 1, node 24), m
         74    -6.78488540649E+001                                                     F               0         Y-component position of node 25 (blade 1, node 24), m
         75     2.36497848511E+002                                                     F               0         Z-component position of node 25 (blade 1, node 24), m
         76     2.95954170227E+001                                                     F               0         X-component position of node 26 (blade 1, node 25), m
         77    -6.99829254150E+001                                                     F               0         Y-component position of node 26 (blade 1, node 25), m
         78     2.39655120850E+002                                                     F               0         Z-component position of node 26 (blade 1, node 25), m
         79     3.02550334930E+001                                                     F               0         X-component position of node 27 (blade 1, node 26), m
         80    -7.21173782349E+001                                                     F               0         Y-component position of node 27 (blade 1, node 26), m
         81     2.42812957764E+002                                                     F               0         Z-component position of node 27 (blade 1, node 26), m
         82     3.09145278931E+001                                                     F               0         X-component position of node 28 (blade 1, node 27), m
         83    -7.42514419556E+001                                                     F               0         Y-component position of node 28 (blade 1, node 27), m
         84     2.45970230103E+002                                                     F               0         Z-component position of node 28 (blade 1, node 27), m
         85     3.14736404419E+001                                                     F               0         X-component position of node 29 (blade 1, node 28), m
         86    -7.60606842041E+001                                                     F               0         Y-component position of node 29 (blade 1, node 28), m
         87     2.48646926880E+002                                                     F               0         Z-component position of node 29 (blade 1, node 28), m
         88     9.80309772491E+000                                                     F               0         X-component position of node 30 (blade 2, node 1), m
         89    -1.16939077377E+001                                                     F               0         Y-component position of node 30 (blade 2, node 1), m
         90     1.44907897949E+002                                                     F               0         Z-component position of node 30 (blade 2, node 1), m
         91     9.55853843689E+000                                                     F               0         X-component position of node 31 (blade 2, node 2), m
         92    -1.22897424698E+001                                                     F               0         Y-component position of node 31 (blade 2, node 2), m
         93     1.43738662720E+002                                                     F               0         Z-component position of node 31 (blade 2, node 2), m
         94     6.23291683197E+000                                                     F               0         X-component position of node 32 (blade 2, node 3), m
         95    -2.03920516968E+001                                                     F               0         Y-component position of node 32 (blade 2, node 3), m
         96     1.27838890076E+002                                                     F               0         Z-component position of node 32 (blade 2, node 3), m
         97     5.52436780930E+000                                                     F               0         X-component position of node 33 (blade 2, node 4), m
         98    -2.21183071136E+001                                                     F               0         Y-component position of node 33 (blade 2, node 4), m
         99     1.24451332092E+002                                                     F               0         Z-component position of node 33 (blade 2, node 4), m
        100     4.81569576263E+000                                                     F               0         X-component position of node 34 (blade 2, node 5), m
        101    -2.38448810577E+001                                                     F               0         Y-component position of node 34 (blade 2, node 5), m
        102     1.21063163757E+002                                                     F               0         Z-component position of node 34 (blade 2, node 5), m
        103     4.10714864731E+000                                                     F               0         X-component position of node 35 (blade 2, node 6), m
        104    -2.55711345673E+001                                                     F               0         Y-component position of node 35 (blade 2, node 6), m
        105     1.17675605774E+002                                                     F               0         Z-component position of node 35 (blade 2, node 6), m
        106     3.39860010147E+000                                                     F               0         X-component position of node 36 (blade 2, node 7), m
        107    -2.72973918915E+001                                                     F               0         Y-component position of node 36 (blade 2, node 7), m
        108     1.14288040161E+002                                                     F               0         Z-component position of node 36 (blade 2, node 7), m
        109     2.68992805481E+000                                                     F               0         X-component position of node 37 (blade 2, node 8), m
        110    -2.90239639282E+001                                                     F               0         Y-component position of node 37 (blade 2, node 8), m
        111     1.10899879456E+002                                                     F               0         Z-component position of node 37 (blade 2, node 8), m
        112     1.98137927055E+000                                                     F               0         X-component position of node 38 (blade 2, node 9), m
        113    -3.07502174377E+001                                                     F               0         Y-component position of node 38 (blade 2, node 9), m
        114     1.07512313843E+002                                                     F               0         Z-component position of node 38 (blade 2, node 9), m
        115     1.27283442020E+000                                                     F               0         X-component position of node 39 (blade 2, node 10), m
        116    -3.24764747620E+001                                                     F               0         Y-component position of node 39 (blade 2, node 10), m
        117     1.04124763489E+002                                                     F               0         Z-component position of node 39 (blade 2, node 10), m
        118     5.64286172390E-001                                                     F               0         X-component position of node 40 (blade 2, node 11), m
        119    -3.42027320862E+001                                                     F               0         Y-component position of node 40 (blade 2, node 11), m
        120     1.00737197876E+002                                                     F               0         Z-component position of node 40 (blade 2, node 11), m
        121    -1.44386500120E-001                                                     F               0         X-component position of node 41 (blade 2, node 12), m
        122    -3.59293098450E+001                                                     F               0         Y-component position of node 41 (blade 2, node 12), m
        123     9.73490295410E+001                                                     F               0         Z-component position of node 41 (blade 2, node 12), m
        124    -8.52935135365E-001                                                     F               0         X-component position of node 42 (blade 2, node 13), m
        125    -3.76555595398E+001                                                     F               0         Y-component position of node 42 (blade 2, node 13), m
        126     9.39614715576E+001                                                     F               0         Z-component position of node 42 (blade 2, node 13), m
        127    -1.56148004532E+000                                                     F               0         X-component position of node 43 (blade 2, node 14), m
        128    -3.93818206787E+001                                                     F               0         Y-component position of node 43 (blade 2, node 14), m
        129     9.05739135742E+001                                                     F               0         Z-component position of node 43 (blade 2, node 14), m
        130    -2.27015733719E+000                                                     F               0         X-component position of node 44 (blade 2, node 15), m
        131    -4.11083869934E+001                                                     F               0         Y-component position of node 44 (blade 2, node 15), m
        132     8.71857376099E+001                                                     F               0         Z-component position of node 44 (blade 2, node 15), m
        133    -2.97870516777E+000                                                     F               0         X-component position of node 45 (blade 2, node 16), m
        134    -4.28346405029E+001                                                     F               0         Y-component position of node 45 (blade 2, node 16), m
        135     8.37981796265E+001                                                     F               0         Z-component position of node 45 (blade 2, node 16), m
        136    -3.68725204468E+000                                                     F               0         X-component position of node 46 (blade 2, node 17), m
        137    -4.45609016418E+001                                                     F               0         Y-component position of node 46 (blade 2, node 17), m
        138     8.04106216431E+001                                                     F               0         Z-component position of node 46 (blade 2, node 17), m
        139    -4.39579868317E+000                                                     F               0         X-component position of node 47 (blade 2, node 18), m
        140    -4.62871551514E+001                                                     F               0         Y-component position of node 47 (blade 2, node 18), m
        141     7.70230636597E+001                                                     F               0         Z-component position of node 47 (blade 2, node 18), m
        142    -5.10447072983E+000                                                     F               0         X-component position of node 48 (blade 2, node 19), m
        143    -4.80137290955E+001                                                     F               0         Y-component position of node 48 (blade 2, node 19), m
        144     7.36348953247E+001                                                     F               0         Z-component position of node 48 (blade 2, node 19), m
        145    -5.81301927567E+000                                                     F               0         X-component position of node 49 (blade 2, node 20), m
        146    -4.97399864197E+001                                                     F               0         Y-component position of node 49 (blade 2, node 20), m
        147     7.02473373413E+001                                                     F               0         Z-component position of node 49 (blade 2, node 20), m
        148    -6.52156543732E+000                                                     F               0         X-component position of node 50 (blade 2, node 21), m
        149    -5.14662437439E+001                                                     F               0         Y-component position of node 50 (blade 2, node 21), m
        150     6.68597717285E+001                                                     F               0         Z-component position of node 50 (blade 2, node 21), m
        151    -7.23024129868E+000                                                     F               0         X-component position of node 51 (blade 2, node 22), m
        152    -5.31928138733E+001                                                     F               0         Y-component position of node 51 (blade 2, node 22), m
        153     6.34716033936E+001                                                     F               0         Z-component position of node 51 (blade 2, node 22), m
        154    -7.93878889084E+000                                                     F               0         X-component position of node 52 (blade 2, node 23), m
        155    -5.49190673828E+001                                                     F               0         Y-component position of node 52 (blade 2, node 23), m
        156     6.00840415955E+001                                                     F               0         Z-component position of node 52 (blade 2, node 23), m
        157    -8.64733600616E+000                                                     F               0         X-component position of node 53 (blade 2, node 24), m
        158    -5.66453247070E+001                                                     F               0         Y-component position of node 53 (blade 2, node 24), m
        159     5.66964836121E+001                                                     F               0         Z-component position of node 53 (blade 2, node 24), m
        160    -9.35588169098E+000                                                     F               0         X-component position of node 54 (blade 2, node 25), m
        161    -5.83715820312E+001                                                     F               0         Y-component position of node 54 (blade 2, node 25), m
        162     5.33089294434E+001                                                     F               0         Z-component position of node 54 (blade 2, node 25), m
        163    -1.00645608902E+001                                                     F               0         X-component position of node 55 (blade 2, node 26), m
        164    -6.00981521606E+001                                                     F               0         Y-component position of node 55 (blade 2, node 26), m
        165     4.99207496643E+001                                                     F               0         Z-component position of node 55 (blade 2, node 26), m
        166    -1.07731065750E+001                                                     F               0         X-component position of node 56 (blade 2, node 27), m
        167    -6.18244132996E+001                                                     F               0         Y-component position of node 56 (blade 2, node 27), m
        168     4.65331916809E+001                                                     F               0         Z-component position of node 56 (blade 2, node 27), m
        169    -1.13737983704E+001                                                     F               0         X-component position of node 57 (blade 2, node 28), m
        170    -6.32879066467E+001                                                     F               0         Y-component position of node 57 (blade 2, node 28), m
        171     4.36612815857E+001                                                     F               0         Z-component position of node 57 (blade 2, node 28), m
        172     1.08883180618E+001                                                     F               0         X-component position of node 58 (blade 3, node 1), m