
Linearized model: Predictions were generated on 07-Feb-2024 at 11:38:03 using OpenFAST, compiled as a 64-bit application using single precision at commit v3.5.1
 linked with  NWTC Subroutine Library; ElastoDyn; InflowWind; AeroDyn; ServoDyn; HydroDyn; MAP++ (<1.20.10>, <Oct-20-2023>)

Description from the FAST input file: CCT-9 Campign 4 model. Input files to be run with OpenFAST 3.5.0. GitHub branch from Lu Wang (https://github.com/luwang00/openfast/tree/dev) compiled on March 7, 2023.

Simulation information:
   Simulation time:                  1003.5000 s
   Rotor Speed:                         1.0400 rad/s
   Azimuth:                             4.6876 rad
   Wind Speed:                         12.0000 m/s
   Number of continuous states:        22
   Number of discrete states:           0
   Number of constraint states:         0
   Number of inputs:                 3988
   Number of outputs:                  41
   Jacobians included in this file?    No

Order of continuous states:
   Row/Column Operating Point                     Rotating Frame? Derivative Order Description
   ---------- ---------------                     --------------- ---------------- -----------
          1    1.230E+01                                 F               2         ED Platform horizontal surge translation DOF (internal DOF index = DOF_Sg), m
          2   -2.192E-01                                 F               2         ED Platform horizontal sway translation DOF (internal DOF index = DOF_Sw), m
          3   -2.610E-01                                 F               2         ED Platform vertical heave translation DOF (internal DOF index = DOF_Hv), m
          4    5.029E-02                                 F               2         ED Platform roll tilt rotation DOF (internal DOF index = DOF_R), rad
          5    1.570E-01                                 F               2         ED Platform pitch tilt rotation DOF (internal DOF index = DOF_P), rad
          6    9.848E-03                                 F               2         ED Platform yaw rotation DOF (internal DOF index = DOF_Y), rad
          7    1.084E+00                                 F               2         ED 1st tower fore-aft bending mode DOF (internal DOF index = DOF_TFA1), m
          8    2.105E-01                                 F               2         ED 1st tower side-to-side bending mode DOF (internal DOF index = DOF_TSS1), m
          9    1.618E-03                                 F               2         ED 2nd tower fore-aft bending mode DOF (internal DOF index = DOF_TFA2), m
         10    9.023E-05                                 F               2         ED 2nd tower side-to-side bending mode DOF (internal DOF index = DOF_TSS2), m
         11    3.117E+00                                 F               2         ED Variable speed generator DOF (internal DOF index = DOF_GeAz), rad
         12   -1.173E-03                                 F               2         ED First time derivative of Platform horizontal surge translation DOF (internal DOF index = DOF_Sg), m/s
         13   -5.770E-04                                 F               2         ED First time derivative of Platform horizontal sway translation DOF (internal DOF index = DOF_Sw), m/s
         14    8.970E-04                                 F               2         ED First time derivative of Platform vertical heave translation DOF (internal DOF index = DOF_Hv), m/s
         15    1.557E-03                                 F               2         ED First time derivative of Platform roll tilt rotation DOF (internal DOF index = DOF_R), rad/s
         16   -7.776E-05                                 F               2         ED First time derivative of Platform pitch tilt rotation DOF (internal DOF index = DOF_P), rad/s
         17   -2.464E-04                                 F               2         ED First time derivative of Platform yaw rotation DOF (internal DOF index = DOF_Y), rad/s
         18   -2.504E-04                                 F               2         ED First time derivative of 1st tower fore-aft bending mode DOF (internal DOF index = DOF_TFA1), m/s
         19    8.699E-03                                 F               2         ED First time derivative of 1st tower side-to-side bending mode DOF (internal DOF index = DOF_TSS1), m/s
         20    6.492E-07                                 F               2         ED First time derivative of 2nd tower fore-aft bending mode DOF (internal DOF index = DOF_TFA2), m/s
         21    6.745E-06                                 F               2         ED First time derivative of 2nd tower side-to-side bending mode DOF (internal DOF index = DOF_TSS2), m/s
         22    1.040E+00                                 F               2         ED First time derivative of Variable speed generator DOF (internal DOF index = DOF_GeAz), rad/s

Order of continuous state derivatives:
   Row/Column Operating Point                     Rotating Frame? Derivative Order Description
   ---------- ---------------                     --------------- ---------------- -----------
          1   -1.173E-03                                 F               2         First time derivative of ED Platform horizontal surge translation DOF (internal DOF index = DOF_Sg), m/s
          2   -5.770E-04                                 F               2         First time derivative of ED Platform horizontal sway translation DOF (internal DOF index = DOF_Sw), m/s
          3    8.970E-04                                 F               2         First time derivative of ED Platform vertical heave translation DOF (internal DOF index = DOF_Hv), m/s
          4    1.557E-03                                 F               2         First time derivative of ED Platform roll tilt rotation DOF (internal DOF index = DOF_R), rad/s
          5   -7.776E-05                                 F               2         First time derivative of ED Platform pitch tilt rotation DOF (internal DOF index = DOF_P), rad/s
          6   -2.464E-04                                 F               2         First time derivative of ED Platform yaw rotation DOF (internal DOF index = DOF_Y), rad/s
          7   -2.504E-04                                 F               2         First time derivative of ED 1st tower fore-aft bending mode DOF (internal DOF index = DOF_TFA1), m/s
          8    8.699E-03                                 F               2         First time derivative of ED 1st tower side-to-side bending mode DOF (internal DOF index = DOF_TSS1), m/s
          9    6.492E-07                                 F               2         First time derivative of ED 2nd tower fore-aft bending mode DOF (internal DOF index = DOF_TFA2), m/s
         10    6.745E-06                                 F               2         First time derivative of ED 2nd tower side-to-side bending mode DOF (internal DOF index = DOF_TSS2), m/s
         11    1.040E+00                                 F               2         First time derivative of ED Variable speed generator DOF (internal DOF index = DOF_GeAz), rad/s
         12    4.458E-04                                 F               2         First time derivative of ED First time derivative of Platform horizontal surge translation DOF (internal DOF index = DOF_Sg), m/s/s
         13    2.476E-04                                 F               2         First time derivative of ED First time derivative of Platform horizontal sway translation DOF (internal DOF index = DOF_Sw), m/s/s
         14    1.296E-03                                 F               2         First time derivative of ED First time derivative of Platform vertical heave translation DOF (internal DOF index = DOF_Hv), m/s/s
         15   -2.987E-04                                 F               2         First time derivative of ED First time derivative of Platform roll tilt rotation DOF (internal DOF index = DOF_R), rad/s/s
         16   -1.014E-06                                 F               2         First time derivative of ED First time derivative of Platform pitch tilt rotation DOF (internal DOF index = DOF_P), rad/s/s
         17    1.425E-04                                 F               2         First time derivative of ED First time derivative of Platform yaw rotation DOF (internal DOF index = DOF_Y), rad/s/s
         18   -5.975E-03                                 F               2         First time derivative of ED First time derivative of 1st tower fore-aft bending mode DOF (internal DOF index = DOF_TFA1), m/s/s
         19   -5.109E-04                                 F               2         First time derivative of ED First time derivative of 1st tower side-to-side bending mode DOF (internal DOF index = DOF_TSS1), m/s/s
         20   -4.250E-05                                 F               2         First time derivative of ED First time derivative of 2nd tower fore-aft bending mode DOF (internal DOF index = DOF_TFA2), m/s/s
         21   -1.820E-06                                 F               2         First time derivative of ED First time derivative of 2nd tower side-to-side bending mode DOF (internal DOF index = DOF_TSS2), m/s/s
         22    3.645E-04                                 F               2         First time derivative of ED First time derivative of Variable speed generator DOF (internal DOF index = DOF_GeAz), rad/s/s

Order of inputs:
     Column   Operating Point                     Rotating Frame? Derivative Order Description
   ---------- ---------------                     --------------- ---------------- -----------
          1   -1.080E+01                                 F               0         IfW X-component position of node 1 (hub), m
          2    0.000E+00                                 F               0         IfW Y-component position of node 1 (hub), m
          3    1.497E+02                                 F               0         IfW Z-component position of node 1 (hub), m
          4    2.599E+01                                 F               0         IfW X-component position of node 2 (blade 1, node 1), m
          5   -2.365E+00                                 F               0         IfW Y-component position of node 2 (blade 1, node 1), m
          6    1.493E+02                                 F               0         IfW Z-component position of node 2 (blade 1, node 1), m
          7    2.598E+01                                 F               0         IfW X-component position of node 3 (blade 1, node 2), m
          8   -1.031E+00                                 F               0         IfW Y-component position of node 3 (blade 1, node 2), m
          9    1.493E+02                                 F               0         IfW Z-component position of node 3 (blade 1, node 2), m
         10    2.576E+01                                 F               0         IfW X-component position of node 4 (blade 1, node 3), m
         11    1.711E+01                                 F               0         IfW Y-component position of node 4 (blade 1, node 3), m
         12    1.498E+02                                 F               0         IfW Z-component position of node 4 (blade 1, node 3), m
         13    2.571E+01                                 F               0         IfW X-component position of node 5 (blade 1, node 4), m
         14    2.098E+01                                 F               0         IfW Y-component position of node 5 (blade 1, node 4), m
         15    1.499E+02                                 F               0         IfW Z-component position of node 5 (blade 1, node 4), m
         16    2.566E+01                                 F               0         IfW X-component position of node 6 (blade 1, node 5), m
         17    2.484E+01                                 F               0         IfW Y-component position of node 6 (blade 1, node 5), m
         18    1.500E+02                                 F               0         IfW Z-component position of node 6 (blade 1, node 5), m
         19    2.562E+01                                 F               0         IfW X-component position of node 7 (blade 1, node 6), m
         20    2.871E+01                                 F               0         IfW Y-component position of node 7 (blade 1, node 6), m
         21    1.502E+02                                 F               0         IfW Z-component position of node 7 (blade 1, node 6), m
         22    2.557E+01                                 F               0         IfW X-component position of node 8 (blade 1, node 7), m
         23    3.258E+01                                 F               0         IfW Y-component position of node 8 (blade 1, node 7), m
         24    1.503E+02                                 F               0         IfW Z-component position of node 8 (blade 1, node 7), m
         25    2.552E+01                                 F               0         IfW X-component position of node 9 (blade 1, node 8), m
         26    3.644E+01                                 F               0         IfW Y-component position of node 9 (blade 1, node 8), m
         27    1.504E+02                                 F               0         IfW Z-component position of node 9 (blade 1, node 8), m
         28    2.547E+01                                 F               0         IfW X-component position of node 10 (blade 1, node 9), m
         29    4.031E+01                                 F               0         IfW Y-component position of node 10 (blade 1, node 9), m
         30    1.505E+02                                 F               0         IfW Z-component position of node 10 (blade 1, node 9), m
         31    2.543E+01                                 F               0         IfW X-component position of node 11 (blade 1, node 10), m
         32    4.417E+01                                 F               0         IfW Y-component position of node 11 (blade 1, node 10), m
         33    1.506E+02                                 F               0         IfW Z-component position of node 11 (blade 1, node 10), m
         34    2.538E+01                                 F               0         IfW X-component position of node 12 (blade 1, node 11), m
         35    4.804E+01                                 F               0         IfW Y-component position of node 12 (blade 1, node 11), m
         36    1.507E+02                                 F               0         IfW Z-component position of node 12 (blade 1, node 11), m
         37    2.533E+01                                 F               0         IfW X-component position of node 13 (blade 1, node 12), m
         38    5.190E+01                                 F               0         IfW Y-component position of node 13 (blade 1, node 12), m
         39    1.508E+02                                 F               0         IfW Z-component position of node 13 (blade 1, node 12), m
         40    2.529E+01                                 F               0         IfW X-component position of node 14 (blade 1, node 13), m
         41    5.577E+01                                 F               0         IfW Y-component position of node 14 (blade 1, node 13), m
         42    1.509E+02                                 F               0         IfW Z-component position of node 14 (blade 1, node 13), m
         43    2.524E+01                                 F               0         IfW X-component position of node 15 (blade 1, node 14), m
         44    5.964E+01                                 F               0         IfW Y-component position of node 15 (blade 1, node 14), m
         45    1.511E+02                                 F               0         IfW Z-component position of node 15 (blade 1, node 14), m
         46    2.519E+01                                 F               0         IfW X-component position of node 16 (blade 1, node 15), m
         47    6.350E+01                                 F               0         IfW Y-component position of node 16 (blade 1, node 15), m
         48    1.512E+02                                 F               0         IfW Z-component position of node 16 (blade 1, node 15), m
         49    2.515E+01                                 F               0         IfW X-component position of node 17 (blade 1, node 16), m
         50    6.737E+01                                 F               0         IfW Y-component position of node 17 (blade 1, node 16), m
         51    1.513E+02                                 F               0         IfW Z-component position of node 17 (blade 1, node 16), m
         52    2.510E+01                                 F               0         IfW X-component position of node 18 (blade 1, node 17), m
         53    7.123E+01                                 F               0         IfW Y-component position of node 18 (blade 1, node 17), m
         54    1.514E+02                                 F               0         IfW Z-component position of node 18 (blade 1, node 17), m
         55    2.505E+01                                 F               0         IfW X-component position of node 19 (blade 1, node 18), m
         56    7.510E+01                                 F               0         IfW Y-component position of node 19 (blade 1, node 18), m
         57    1.515E+02                                 F               0         IfW Z-component position of node 19 (blade 1, node 18), m
         58    2.501E+01                                 F               0         IfW X-component position of node 20 (blade 1, node 19), m
         59    7.897E+01                                 F               0         IfW Y-component position of node 20 (blade 1, node 19), m
         60    1.516E+02                                 F               0         IfW Z-component position of node 20 (blade 1, node 19), m
         61    2.496E+01                                 F               0         IfW X-component position of node 21 (blade 1, node 20), m
         62    8.283E+01                                 F               0         IfW Y-component position of node 21 (blade 1, node 20), m
         63    1.517E+02                                 F               0         IfW Z-component position of node 21 (blade 1, node 20), m
         64    2.491E+01                                 F               0         IfW X-component position of node 22 (blade 1, node 21), m
         65    8.670E+01                                 F               0         IfW Y-component position of node 22 (blade 1, node 21), m
         66    1.518E+02                                 F               0         IfW Z-component position of node 22 (blade 1, node 21), m
         67    2.487E+01                                 F               0         IfW X-component position of node 23 (blade 1, node 22), m
         68    9.056E+01                                 F               0         IfW Y-component position of node 23 (blade 1, node 22), m
         69    1.520E+02                                 F               0         IfW Z-component position of node 23 (blade 1, node 22), m
         70    2.482E+01                                 F               0         IfW X-component position of node 24 (blade 1, node 23), m
         71    9.443E+01                                 F               0         IfW Y-component position of node 24 (blade 1, node 23), m
         72    1.521E+02                                 F               0         IfW Z-component position of node 24 (blade 1, node 23), m
         73    2.477E+01                                 F               0         IfW X-component position of node 25 (blade 1, node 24), m
         74    9.829E+01                                 F               0         IfW Y-component position of node 25 (blade 1, node 24), m
         75    1.522E+02                                 F               0         IfW Z-component position of node 25 (blade 1, node 24), m
         76    2.473E+01                                 F               0         IfW X-component position of node 26 (blade 1, node 25), m
         77    1.022E+02                                 F               0         IfW Y-component position of node 26 (blade 1, node 25), m
         78    1.523E+02                                 F               0         IfW Z-component position of node 26 (blade 1, node 25), m
         79    2.468E+01                                 F               0         IfW X-component position of node 27 (blade 1, node 26), m
         80    1.060E+02                                 F               0         IfW Y-component position of node 27 (blade 1, node 26), m
         81    1.524E+02                                 F               0         IfW Z-component position of node 27 (blade 1, node 26), m
         82    2.463E+01                                 F               0         IfW X-component position of node 28 (blade 1, node 27), m
         83    1.099E+02                                 F               0         IfW Y-component position of node 28 (blade 1, node 27), m
         84    1.525E+02                                 F               0         IfW Z-component position of node 28 (blade 1, node 27), m
         85    2.459E+01                                 F               0         IfW X-component position of node 29 (blade 1, node 28), m
         86    1.132E+02                                 F               0         IfW Y-component position of node 29 (blade 1, node 28), m
         87    1.526E+02                                 F               0         IfW Z-component position of node 29 (blade 1, node 28), m
         88    2.739E+01                                 F               0         IfW X-component position of node 30 (blade 2, node 1), m
         89   -1.079E+01                                 F               0         IfW Y-component position of node 30 (blade 2, node 1), m
         90    1.536E+02                                 F               0         IfW Z-component position of node 30 (blade 2, node 1), m
         91    2.771E+01                                 F               0         IfW X-component position of node 31 (blade 2, node 2), m
         92   -1.149E+01                                 F               0         IfW Y-component position of node 31 (blade 2, node 2), m
         93    1.547E+02                                 F               0         IfW Z-component position of node 31 (blade 2, node 2), m
         94    3.206E+01                                 F               0         IfW X-component position of node 32 (blade 2, node 3), m
         95   -2.095E+01                                 F               0         IfW Y-component position of node 32 (blade 2, node 3), m
         96    1.696E+02                                 F               0         IfW Z-component position of node 32 (blade 2, node 3), m
         97    3.299E+01                                 F               0         IfW X-component position of node 33 (blade 2, node 4), m
         98   -2.296E+01                                 F               0         IfW Y-component position of node 33 (blade 2, node 4), m
         99    1.728E+02                                 F               0         IfW Z-component position of node 33 (blade 2, node 4), m
        100    3.391E+01                                 F               0         IfW X-component position of node 34 (blade 2, node 5), m
        101   -2.498E+01                                 F               0         IfW Y-component position of node 34 (blade 2, node 5), m
        102    1.759E+02                                 F               0         IfW Z-component position of node 34 (blade 2, node 5), m
        103    3.484E+01                                 F               0         IfW X-component position of node 35 (blade 2, node 6), m
        104   -2.699E+01                                 F               0         IfW Y-component position of node 35 (blade 2, node 6), m
        105    1.791E+02                                 F               0         IfW Z-component position of node 35 (blade 2, node 6), m
        106    3.577E+01                                 F               0         IfW X-component position of node 36 (blade 2, node 7), m
        107   -2.901E+01                                 F               0         IfW Y-component position of node 36 (blade 2, node 7), m
        108    1.823E+02                                 F               0         IfW Z-component position of node 36 (blade 2, node 7), m
        109    3.669E+01                                 F               0         IfW X-component position of node 37 (blade 2, node 8), m
        110   -3.103E+01                                 F               0         IfW Y-component position of node 37 (blade 2, node 8), m
        111    1.854E+02                                 F               0         IfW Z-component position of node 37 (blade 2, node 8), m
        112    3.762E+01                                 F               0         IfW X-component position of node 38 (blade 2, node 9), m
        113   -3.304E+01                                 F               0         IfW Y-component position of node 38 (blade 2, node 9), m
        114    1.886E+02                                 F               0         IfW Z-component position of node 38 (blade 2, node 9), m
        115    3.855E+01                                 F               0         IfW X-component position of node 39 (blade 2, node 10), m
        116   -3.506E+01                                 F               0         IfW Y-component position of node 39 (blade 2, node 10), m
        117    1.918E+02                                 F               0         IfW Z-component position of node 39 (blade 2, node 10), m
        118    3.948E+01                                 F               0         IfW X-component position of node 40 (blade 2, node 11), m
        119   -3.707E+01                                 F               0         IfW Y-component position of node 40 (blade 2, node 11), m
        120    1.949E+02                                 F               0         IfW Z-component position of node 40 (blade 2, node 11), m
        121    4.040E+01                                 F               0         IfW X-component position of node 41 (blade 2, node 12), m
        122   -3.909E+01                                 F               0         IfW Y-component position of node 41 (blade 2, node 12), m
        123    1.981E+02                                 F               0         IfW Z-component position of node 41 (blade 2, node 12), m
        124    4.133E+01                                 F               0         IfW X-component position of node 42 (blade 2, node 13), m
        125   -4.110E+01                                 F               0         IfW Y-component position of node 42 (blade 2, node 13), m
        126    2.013E+02                                 F               0         IfW Z-component position of node 42 (blade 2, node 13), m
        127    4.226E+01                                 F               0         IfW X-component position of node 43 (blade 2, node 14), m
        128   -4.312E+01                                 F               0         IfW Y-component position of node 43 (blade 2, node 14), m
        129    2.044E+02                                 F               0         IfW Z-component position of node 43 (blade 2, node 14), m
        130    4.318E+01                                 F               0         IfW X-component position of node 44 (blade 2, node 15), m
        131   -4.514E+01                                 F               0         IfW Y-component position of node 44 (blade 2, node 15), m
        132    2.076E+02                                 F               0         IfW Z-component position of node 44 (blade 2, node 15), m
        133    4.411E+01                                 F               0         IfW X-component position of node 45 (blade 2, node 16), m
        134   -4.715E+01                                 F               0         IfW Y-component position of node 45 (blade 2, node 16), m
        135    2.108E+02                                 F               0         IfW Z-component position of node 45 (blade 2, node 16), m
        136    4.504E+01                                 F               0         IfW X-component position of node 46 (blade 2, node 17), m
        137   -4.917E+01                                 F               0         IfW Y-component position of node 46 (blade 2, node 17), m
        138    2.139E+02                                 F               0         IfW Z-component position of node 46 (blade 2, node 17), m
        139    4.597E+01                                 F               0         IfW X-component position of node 47 (blade 2, node 18), m
        140   -5.118E+01                                 F               0         IfW Y-component position of node 47 (blade 2, node 18), m
        141    2.171E+02                                 F               0         IfW Z-component position of node 47 (blade 2, node 18), m
        142    4.689E+01                                 F               0         IfW X-component position of node 48 (blade 2, node 19), m
        143   -5.320E+01                                 F               0         IfW Y-component position of node 48 (blade 2, node 19), m
        144    2.203E+02                                 F               0         IfW Z-component position of node 48 (blade 2, node 19), m