
Linearized model: Predictions were generated on 13-Feb-2024 at 12:12:09 using OpenFAST, compiled as a 64-bit application using single precision at commit v3.5.1
 linked with  NWTC Subroutine Library; ElastoDyn; InflowWind; AeroDyn; ServoDyn; HydroDyn; MAP++ (<1.20.10>, <Oct-20-2023>)

Description from the FAST input file: CCT-9 Campign 4 model. Input files to be run with OpenFAST 3.5.0. GitHub branch from Lu Wang (https://github.com/luwang00/openfast/tree/dev) compiled on March 7, 2023.

Simulation information:
   Simulation time:                   775.0750 s
   Rotor Speed:                         0.7917 rad/s
   Azimuth:                             3.6740 rad
   Wind Speed:                         24.0000 m/s
   Number of continuous states:        22
   Number of discrete states:           0
   Number of constraint states:         0
   Number of inputs:                 1890
   Number of outputs:                  25
   Jacobians included in this file?    No

Order of continuous states:
   Row/Column Operating Point                                                   Rotating Frame? Derivative Order Description
   ---------- ---------------                                                   --------------- ---------------- -----------
          1     6.82504081726E+000                                                     F               2         Platform horizontal surge translation DOF (internal DOF index = DOF_Sg), m
          2    -8.25026750565E-001                                                     F               2         Platform horizontal sway translation DOF (internal DOF index = DOF_Sw), m
          3    -1.08919396996E-001                                                     F               2         Platform vertical heave translation DOF (internal DOF index = DOF_Hv), m
          4     5.43821230531E-002                                                     F               2         Platform roll tilt rotation DOF (internal DOF index = DOF_R), rad
          5     9.53013971448E-002                                                     F               2         Platform pitch tilt rotation DOF (internal DOF index = DOF_P), rad
          6    -9.29653644562E-003                                                     F               2         Platform yaw rotation DOF (internal DOF index = DOF_Y), rad
          7     5.26938498020E-001                                                     F               2         1st tower fore-aft bending mode DOF (internal DOF index = DOF_TFA1), m
          8     2.69142955542E-001                                                     F               2         1st tower side-to-side bending mode DOF (internal DOF index = DOF_TSS1), m
          9     1.50918588042E-003                                                     F               2         2nd tower fore-aft bending mode DOF (internal DOF index = DOF_TFA2), m
         10    -2.96111044008E-004                                                     F               2         2nd tower side-to-side bending mode DOF (internal DOF index = DOF_TSS2), m
         11     2.10319328308E+000                                                     F               2         Variable speed generator DOF (internal DOF index = DOF_GeAz), rad
         12    -1.26558938064E-003                                                     F               2         First time derivative of Platform horizontal surge translation DOF (internal DOF index = DOF_Sg), m/s
         13     2.87582236342E-003                                                     F               2         First time derivative of Platform horizontal sway translation DOF (internal DOF index = DOF_Sw), m/s
         14    -3.14285256900E-003                                                     F               2         First time derivative of Platform vertical heave translation DOF (internal DOF index = DOF_Hv), m/s
         15    -1.15330345579E-004                                                     F               2         First time derivative of Platform roll tilt rotation DOF (internal DOF index = DOF_R), rad/s
         16    -1.11816167191E-004                                                     F               2         First time derivative of Platform pitch tilt rotation DOF (internal DOF index = DOF_P), rad/s
         17     6.01239844400E-006                                                     F               2         First time derivative of Platform yaw rotation DOF (internal DOF index = DOF_Y), rad/s
         18     2.40839328617E-002                                                     F               2         First time derivative of 1st tower fore-aft bending mode DOF (internal DOF index = DOF_TFA1), m/s
         19     2.38413605839E-002                                                     F               2         First time derivative of 1st tower side-to-side bending mode DOF (internal DOF index = DOF_TSS1), m/s
         20     1.14217385999E-004                                                     F               2         First time derivative of 2nd tower fore-aft bending mode DOF (internal DOF index = DOF_TFA2), m/s
         21    -2.98402264889E-005                                                     F               2         First time derivative of 2nd tower side-to-side bending mode DOF (internal DOF index = DOF_TSS2), m/s
         22     7.91740179062E-001                                                     F               2         First time derivative of Variable speed generator DOF (internal DOF index = DOF_GeAz), rad/s

Order of continuous state derivatives:
   Row/Column Operating Point                                                   Rotating Frame? Derivative Order Description
   ---------- ---------------                                                   --------------- ---------------- -----------
          1    -1.26558938064E-003                                                     F               2         First time derivative of Platform horizontal surge translation DOF (internal DOF index = DOF_Sg), m/s
          2     2.87582236342E-003                                                     F               2         First time derivative of Platform horizontal sway translation DOF (internal DOF index = DOF_Sw), m/s
          3    -3.14285256900E-003                                                     F               2         First time derivative of Platform vertical heave translation DOF (internal DOF index = DOF_Hv), m/s
          4    -1.15330345579E-004                                                     F               2         First time derivative of Platform roll tilt rotation DOF (internal DOF index = DOF_R), rad/s
          5    -1.11816167191E-004                                                     F               2         First time derivative of Platform pitch tilt rotation DOF (internal DOF index = DOF_P), rad/s
          6     6.01239844400E-006                                                     F               2         First time derivative of Platform yaw rotation DOF (internal DOF index = DOF_Y), rad/s
          7     2.40839328617E-002                                                     F               2         First time derivative of 1st tower fore-aft bending mode DOF (internal DOF index = DOF_TFA1), m/s
          8     2.38413605839E-002                                                     F               2         First time derivative of 1st tower side-to-side bending mode DOF (internal DOF index = DOF_TSS1), m/s
          9     1.14217385999E-004                                                     F               2         First time derivative of 2nd tower fore-aft bending mode DOF (internal DOF index = DOF_TFA2), m/s
         10    -2.98402264889E-005                                                     F               2         First time derivative of 2nd tower side-to-side bending mode DOF (internal DOF index = DOF_TSS2), m/s
         11     7.91740179062E-001                                                     F               2         First time derivative of Variable speed generator DOF (internal DOF index = DOF_GeAz), rad/s
         12    -8.76014214009E-003                                                     F               2         First time derivative of First time derivative of Platform horizontal surge translation DOF (internal DOF index = DOF_Sg), m/s/s
         13    -1.83594514965E-004                                                     F               2         First time derivative of First time derivative of Platform horizontal sway translation DOF (internal DOF index = DOF_Sw), m/s/s
         14    -5.91694377363E-004                                                     F               2         First time derivative of First time derivative of Platform vertical heave translation DOF (internal DOF index = DOF_Hv), m/s/s
         15     1.54510253196E-005                                                     F               2         First time derivative of First time derivative of Platform roll tilt rotation DOF (internal DOF index = DOF_R), rad/s/s
         16    -5.46072027646E-004                                                     F               2         First time derivative of First time derivative of Platform pitch tilt rotation DOF (internal DOF index = DOF_P), rad/s/s
         17    -3.84183840652E-005                                                     F               2         First time derivative of First time derivative of Platform yaw rotation DOF (internal DOF index = DOF_Y), rad/s/s
         18     1.23110048473E-001                                                     F               2         First time derivative of First time derivative of 1st tower fore-aft bending mode DOF (internal DOF index = DOF_TFA1), m/s/s
         19    -5.84591645747E-003                                                     F               2         First time derivative of First time derivative of 1st tower side-to-side bending mode DOF (internal DOF index = DOF_TSS1), m/s/s
         20     1.32213742472E-003                                                     F               2         First time derivative of First time derivative of 2nd tower fore-aft bending mode DOF (internal DOF index = DOF_TFA2), m/s/s
         21     2.67034309218E-004                                                     F               2         First time derivative of First time derivative of 2nd tower side-to-side bending mode DOF (internal DOF index = DOF_TSS2), m/s/s
         22    -4.78872942040E-004                                                     F               2         First time derivative of First time derivative of Variable speed generator DOF (internal DOF index = DOF_GeAz), rad/s/s

Order of inputs:
     Column   Operating Point                                                   Rotating Frame? Derivative Order Description
   ---------- ---------------                                                   --------------- ---------------- -----------
          1     3.56206115723E+002                                                     F               0         Blade 1 X force, node 1, N
          2    -3.85167884827E+001                                                     F               0         Blade 1 Y force, node 1, N
          3    -1.00645133972E+002                                                     F               0         Blade 1 Z force, node 1, N
          4     1.37970727539E+003                                                     F               0         Blade 1 X force, node 2, N
          5    -5.64352569580E+001                                                     F               0         Blade 1 Y force, node 2, N
          6    -3.26295227051E+002                                                     F               0         Blade 1 Z force, node 2, N
          7     1.50026232910E+003                                                     F               0         Blade 1 X force, node 3, N
          8     1.22419296265E+002                                                     F               0         Blade 1 Y force, node 3, N
          9    -2.28909698486E+002                                                     F               0         Blade 1 Z force, node 3, N
         10     1.76375512695E+003                                                     F               0         Blade 1 X force, node 4, N
         11     2.97416748047E+002                                                     F               0         Blade 1 Y force, node 4, N
         12    -1.63965530396E+002                                                     F               0         Blade 1 Z force, node 4, N
         13     2.02726293945E+003                                                     F               0         Blade 1 X force, node 5, N
         14     4.72418121338E+002                                                     F               0         Blade 1 Y force, node 5, N
         15    -9.90217208862E+001                                                     F               0         Blade 1 Z force, node 5, N
         16     2.29075854492E+003                                                     F               0         Blade 1 X force, node 6, N
         17     6.47417480469E+002                                                     F               0         Blade 1 Y force, node 6, N
         18    -3.40768241882E+001                                                     F               0         Blade 1 Z force, node 6, N
         19     2.55423730469E+003                                                     F               0         Blade 1 X force, node 7, N
         20     8.22411315918E+002                                                     F               0         Blade 1 Y force, node 7, N
         21     3.08678913116E+001                                                     F               0         Blade 1 Z force, node 7, N
         22     2.81773022461E+003                                                     F               0         Blade 1 X force, node 8, N
         23     9.97408752441E+002                                                     F               0         Blade 1 Y force, node 8, N
         24     9.58120803833E+001                                                     F               0         Blade 1 Z force, node 8, N
         25     3.08122265625E+003                                                     F               0         Blade 1 X force, node 9, N
         26     1.17240625000E+003                                                     F               0         Blade 1 Y force, node 9, N
         27     1.60756271362E+002                                                     F               0         Blade 1 Z force, node 9, N
         28     3.34471582031E+003                                                     F               0         Blade 1 X force, node 10, N
         29     1.34740356445E+003                                                     F               0         Blade 1 Y force, node 10, N
         30     2.25700454712E+002                                                     F               0         Blade 1 Z force, node 10, N
         31     3.60820898438E+003                                                     F               0         Blade 1 X force, node 11, N
         32     1.52240112305E+003                                                     F               0         Blade 1 Y force, node 11, N
         33     2.90644653320E+002                                                     F               0         Blade 1 Z force, node 11, N
         34     3.87172851562E+003                                                     F               0         Blade 1 X force, node 12, N
         35     1.69741064453E+003                                                     F               0         Blade 1 Y force, node 12, N
         36     3.55591461182E+002                                                     F               0         Blade 1 Z force, node 12, N
         37     4.13522412109E+003                                                     F               0         Blade 1 X force, node 13, N
         38     1.87240991211E+003                                                     F               0         Blade 1 Y force, node 13, N
         39     4.20536407471E+002                                                     F               0         Blade 1 Z force, node 13, N
         40     4.39869091797E+003                                                     F               0         Blade 1 X force, node 14, N
         41     2.04739587402E+003                                                     F               0         Blade 1 Y force, node 14, N
         42     4.85478118896E+002                                                     F               0         Blade 1 Z force, node 14, N
         43     4.66221484375E+003                                                     F               0         Blade 1 X force, node 15, N
         44     2.22240795898E+003                                                     F               0         Blade 1 Y force, node 15, N
         45     5.50426086426E+002                                                     F               0         Blade 1 Z force, node 15, N
         46     4.92567529297E+003                                                     F               0         Blade 1 X force, node 16, N
         47     2.39738989258E+003                                                     F               0         Blade 1 Y force, node 16, N
         48     6.15366271973E+002                                                     F               0         Blade 1 Z force, node 16, N
         49     5.99988330078E+003                                                     F               0         Blade 1 X force, node 17, N
         50     2.97050732422E+003                                                     F               0         Blade 1 Y force, node 17, N
         51     7.84014770508E+002                                                     F               0         Blade 1 Z force, node 17, N
         52     4.43483251953E+003                                                     F               0         Blade 1 X force, node 18, N
         53     2.18182470703E+003                                                     F               0         Blade 1 Y force, node 18, N
         54     5.70029418945E+002                                                     F               0         Blade 1 Z force, node 18, N
         55     5.24756787109E+003                                                     F               0         Blade 1 X force, node 19, N
         56     2.54352221680E+003                                                     F               0         Blade 1 Y force, node 19, N
         57     6.48362365723E+002                                                     F               0         Blade 1 Z force, node 19, N
         58     4.32083740234E+003                                                     F               0         Blade 1 X force, node 20, N
         59     2.06318139648E+003                                                     F               0         Blade 1 Y force, node 20, N
         60     5.12522033691E+002                                                     F               0         Blade 1 Z force, node 20, N
         61     6.15110351562E+003                                                     F               0         Blade 1 X force, node 21, N
         62     2.90019799805E+003                                                     F               0         Blade 1 Y force, node 21, N
         63     7.04325805664E+002                                                     F               0         Blade 1 Z force, node 21, N
         64     5.27182470703E+003                                                     F               0         Blade 1 X force, node 22, N
         65     2.47984106445E+003                                                     F               0         Blade 1 Y force, node 22, N
         66     5.99682922363E+002                                                     F               0         Blade 1 Z force, node 22, N
         67     5.27644287109E+003                                                     F               0         Blade 1 X force, node 23, N
         68     2.47889916992E+003                                                     F               0         Blade 1 Y force, node 23, N
         69     5.98074829102E+002                                                     F               0         Blade 1 Z force, node 23, N
         70     5.39407373047E+003                                                     F               0         Blade 1 X force, node 24, N
         71     2.53539868164E+003                                                     F               0         Blade 1 Y force, node 24, N
         72     6.12254760742E+002                                                     F               0         Blade 1 Z force, node 24, N
         73     5.49527636719E+003                                                     F               0         Blade 1 X force, node 25, N
         74     2.60115112305E+003                                                     F               0         Blade 1 Y force, node 25, N
         75     6.36198059082E+002                                                     F               0         Blade 1 Z force, node 25, N
         76     5.64601074219E+003                                                     F               0         Blade 1 X force, node 26, N
         77     2.69424975586E+003                                                     F               0         Blade 1 Y force, node 26, N
         78     6.68547729492E+002                                                     F               0         Blade 1 Z force, node 26, N
         79     6.78227294922E+003                                                     F               0         Blade 1 X force, node 27, N
         80     3.26409960938E+003                                                     F               0         Blade 1 Y force, node 27, N
         81     8.22020446777E+002                                                     F               0         Blade 1 Z force, node 27, N
         82     5.27064599609E+003                                                     F               0         Blade 1 X force, node 28, N
         83     2.56544653320E+003                                                     F               0         Blade 1 Y force, node 28, N
         84     6.58569580078E+002                                                     F               0         Blade 1 Z force, node 28, N
         85     6.80506445312E+003                                                     F               0         Blade 1 X force, node 29, N
         86     3.34390869141E+003                                                     F               0         Blade 1 Y force, node 29, N
         87     8.71939819336E+002                                                     F               0         Blade 1 Z force, node 29, N
         88     6.07812451172E+003                                                     F               0         Blade 1 X force, node 30, N
         89     3.01087670898E+003                                                     F               0         Blade 1 Y force, node 30, N
         90     7.95356750488E+002                                                     F               0         Blade 1 Z force, node 30, N
         91     9.07518652344E+003                                                     F               0         Blade 1 X force, node 31, N
         92     4.49882031250E+003                                                     F               0         Blade 1 Y force, node 31, N
         93     1.18980700684E+003                                                     F               0         Blade 1 Z force, node 31, N
         94     7.92673242188E+003                                                     F               0         Blade 1 X force, node 32, N
         95     3.87499145508E+003                                                     F               0         Blade 1 Y force, node 32, N
         96     1.00189923096E+003                                                     F               0         Blade 1 Z force, node 32, N
         97     8.05239208984E+003                                                     F               0         Blade 1 X force, node 33, N
         98     3.88100976562E+003                                                     F               0         Blade 1 Y force, node 33, N
         99     9.79824707031E+002                                                     F               0         Blade 1 Z force, node 33, N
        100     8.16745654297E+003                                                     F               0         Blade 1 X force, node 34, N
        101     3.87969311523E+003                                                     F               0         Blade 1 Y force, node 34, N
        102     9.54934814453E+002                                                     F               0         Blade 1 Z force, node 34, N
        103     8.23187695312E+003                                                     F               0         Blade 1 X force, node 35, N
        104     3.84506640625E+003                                                     F               0         Blade 1 Y force, node 35, N
        105     9.17784851074E+002                                                     F               0         Blade 1 Z force, node 35, N
        106     8.28145019531E+003                                                     F               0         Blade 1 X force, node 36, N
        107     3.80109008789E+003                                                     F               0         Blade 1 Y force, node 36, N
        108     8.77325439453E+002                                                     F               0         Blade 1 Z force, node 36, N
        109     9.73725000000E+003                                                     F               0         Blade 1 X force, node 37, N
        110     4.38581591797E+003                                                     F               0         Blade 1 Y force, node 37, N
        111     9.74372497559E+002                                                     F               0         Blade 1 Z force, node 37, N
        112     6.96547851562E+003                                                     F               0         Blade 1 X force, node 38, N
        113     3.07529956055E+003                                                     F               0         Blade 1 Y force, node 38, N
        114     6.54495300293E+002                                                     F               0         Blade 1 Z force, node 38, N
        115     8.40535742188E+003                                                     F               0         Blade 1 X force, node 39, N
        116     3.64600708008E+003                                                     F               0         Blade 1 Y force, node 39, N
        117     7.45258850098E+002                                                     F               0         Blade 1 Z force, node 39, N
        118     7.05874218750E+003                                                     F               0         Blade 1 X force, node 40, N
        119     3.00746972656E+003                                                     F               0         Blade 1 Y force, node 40, N
        120     5.88587585449E+002                                                     F               0         Blade 1 Z force, node 40, N
        121     9.83753222656E+003                                                     F               0         Blade 1 X force, node 41, N
        122     4.10241552734E+003                                                     F               0         Blade 1 Y force, node 41, N
        123     7.59332153320E+002                                                     F               0         Blade 1 Z force, node 41, N
        124     8.45284472656E+003                                                     F               0         Blade 1 X force, node 42, N
        125     3.44649682617E+003                                                     F               0         Blade 1 Y force, node 42, N
        126     5.98691101074E+002                                                     F               0         Blade 1 Z force, node 42, N
        127     8.44606152344E+003                                                     F               0         Blade 1 X force, node 43, N
        128     3.36967358398E+003                                                     F               0         Blade 1 Y force, node 43, N
        129     5.47480224609E+002                                                     F               0         Blade 1 Z force, node 43, N
        130     8.47102050781E+003                                                     F               0         Blade 1 X force, node 44, N
        131     3.30626611328E+003                                                     F               0         Blade 1 Y force, node 44, N
        132     4.98841491699E+002                                                     F               0         Blade 1 Z force, node 44, N
        133     8.31145214844E+003                                                     F               0         Blade 1 X force, node 45, N
        134     3.17596484375E+003                                                     F               0         Blade 1 Y force, node 45, N