
Linearized model: Predictions were generated on 12-Jan-2024 at 09:28:28 using OpenFAST, compiled as a 64-bit application using single precision at commit v3.5.1
 linked with  NWTC Subroutine Library; ElastoDyn; InflowWind; AeroDyn; ServoDyn; HydroDyn; MAP++ (<1.20.10>, <Oct-20-2023>)

Description from the FAST input file: CCT-9 Campign 4 model. Input files to be run with OpenFAST 3.5.0. GitHub branch from Lu Wang (https://github.com/luwang00/openfast/tree/dev) compiled on March 7, 2023.

Simulation information:
   Simulation time:                   506.6750 s
   Rotor Speed:                         0.8779 rad/s
   Azimuth:                             3.4284 rad
   Wind Speed:                         10.0000 m/s
   Number of continuous states:         0
   Number of discrete states:           0
   Number of constraint states:         0
   Number of inputs:                  303
   Number of outputs:                   1
   Jacobians included in this file?    No

Order of inputs:
     Column   Operating Point                     Rotating Frame? Derivative Order Description
   ---------- ---------------                     --------------- ---------------- -----------
          1   -1.080E+01                                 F               0         X-component position of node 1 (hub), m
          2    0.000E+00                                 F               0         Y-component position of node 1 (hub), m
          3    1.497E+02                                 F               0         Z-component position of node 1 (hub), m
          4    1.537E+01                                 F               0         X-component position of node 2 (blade 1, node 1), m
          5   -5.865E+00                                 F               0         Y-component position of node 2 (blade 1, node 1), m
          6    1.445E+02                                 F               0         Z-component position of node 2 (blade 1, node 1), m
          7    1.508E+01                                 F               0         X-component position of node 3 (blade 1, node 2), m
          8   -5.427E+00                                 F               0         Y-component position of node 3 (blade 1, node 2), m
          9    1.433E+02                                 F               0         Z-component position of node 3 (blade 1, node 2), m
         10    1.106E+01                                 F               0         X-component position of node 4 (blade 1, node 3), m
         11    5.319E-01                                 F               0         Y-component position of node 4 (blade 1, node 3), m
         12    1.266E+02                                 F               0         Z-component position of node 4 (blade 1, node 3), m
         13    1.020E+01                                 F               0         X-component position of node 5 (blade 1, node 4), m
         14    1.802E+00                                 F               0         Y-component position of node 5 (blade 1, node 4), m
         15    1.231E+02                                 F               0         Z-component position of node 5 (blade 1, node 4), m
         16    9.343E+00                                 F               0         X-component position of node 6 (blade 1, node 5), m
         17    3.071E+00                                 F               0         Y-component position of node 6 (blade 1, node 5), m
         18    1.195E+02                                 F               0         Z-component position of node 6 (blade 1, node 5), m
         19    8.486E+00                                 F               0         X-component position of node 7 (blade 1, node 6), m
         20    4.341E+00                                 F               0         Y-component position of node 7 (blade 1, node 6), m
         21    1.160E+02                                 F               0         Z-component position of node 7 (blade 1, node 6), m
         22    7.629E+00                                 F               0         X-component position of node 8 (blade 1, node 7), m
         23    5.611E+00                                 F               0         Y-component position of node 8 (blade 1, node 7), m
         24    1.124E+02                                 F               0         Z-component position of node 8 (blade 1, node 7), m
         25    6.772E+00                                 F               0         X-component position of node 9 (blade 1, node 8), m
         26    6.880E+00                                 F               0         Y-component position of node 9 (blade 1, node 8), m
         27    1.089E+02                                 F               0         Z-component position of node 9 (blade 1, node 8), m
         28    5.915E+00                                 F               0         X-component position of node 10 (blade 1, node 9), m
         29    8.150E+00                                 F               0         Y-component position of node 10 (blade 1, node 9), m
         30    1.053E+02                                 F               0         Z-component position of node 10 (blade 1, node 9), m
         31    5.058E+00                                 F               0         X-component position of node 11 (blade 1, node 10), m
         32    9.420E+00                                 F               0         Y-component position of node 11 (blade 1, node 10), m
         33    1.018E+02                                 F               0         Z-component position of node 11 (blade 1, node 10), m
         34    4.201E+00                                 F               0         X-component position of node 12 (blade 1, node 11), m
         35    1.069E+01                                 F               0         Y-component position of node 12 (blade 1, node 11), m
         36    9.823E+01                                 F               0         Z-component position of node 12 (blade 1, node 11), m
         37    3.344E+00                                 F               0         X-component position of node 13 (blade 1, node 12), m
         38    1.196E+01                                 F               0         Y-component position of node 13 (blade 1, node 12), m
         39    9.467E+01                                 F               0         Z-component position of node 13 (blade 1, node 12), m
         40    2.488E+00                                 F               0         X-component position of node 14 (blade 1, node 13), m
         41    1.323E+01                                 F               0         Y-component position of node 14 (blade 1, node 13), m
         42    9.112E+01                                 F               0         Z-component position of node 14 (blade 1, node 13), m
         43    1.631E+00                                 F               0         X-component position of node 15 (blade 1, node 14), m
         44    1.450E+01                                 F               0         Y-component position of node 15 (blade 1, node 14), m
         45    8.757E+01                                 F               0         Z-component position of node 15 (blade 1, node 14), m
         46    7.736E-01                                 F               0         X-component position of node 16 (blade 1, node 15), m
         47    1.577E+01                                 F               0         Y-component position of node 16 (blade 1, node 15), m
         48    8.402E+01                                 F               0         Z-component position of node 16 (blade 1, node 15), m
         49   -8.324E-02                                 F               0         X-component position of node 17 (blade 1, node 16), m
         50    1.704E+01                                 F               0         Y-component position of node 17 (blade 1, node 16), m
         51    8.047E+01                                 F               0         Z-component position of node 17 (blade 1, node 16), m
         52   -9.401E-01                                 F               0         X-component position of node 18 (blade 1, node 17), m
         53    1.831E+01                                 F               0         Y-component position of node 18 (blade 1, node 17), m
         54    7.692E+01                                 F               0         Z-component position of node 18 (blade 1, node 17), m
         55   -1.797E+00                                 F               0         X-component position of node 19 (blade 1, node 18), m
         56    1.958E+01                                 F               0         Y-component position of node 19 (blade 1, node 18), m
         57    7.337E+01                                 F               0         Z-component position of node 19 (blade 1, node 18), m
         58   -2.654E+00                                 F               0         X-component position of node 20 (blade 1, node 19), m
         59    2.085E+01                                 F               0         Y-component position of node 20 (blade 1, node 19), m
         60    6.981E+01                                 F               0         Z-component position of node 20 (blade 1, node 19), m
         61   -3.511E+00                                 F               0         X-component position of node 21 (blade 1, node 20), m
         62    2.212E+01                                 F               0         Y-component position of node 21 (blade 1, node 20), m
         63    6.626E+01                                 F               0         Z-component position of node 21 (blade 1, node 20), m
         64   -4.368E+00                                 F               0         X-component position of node 22 (blade 1, node 21), m
         65    2.339E+01                                 F               0         Y-component position of node 22 (blade 1, node 21), m
         66    6.271E+01                                 F               0         Z-component position of node 22 (blade 1, node 21), m
         67   -5.225E+00                                 F               0         X-component position of node 23 (blade 1, node 22), m
         68    2.466E+01                                 F               0         Y-component position of node 23 (blade 1, node 22), m
         69    5.916E+01                                 F               0         Z-component position of node 23 (blade 1, node 22), m
         70   -6.082E+00                                 F               0         X-component position of node 24 (blade 1, node 23), m
         71    2.593E+01                                 F               0         Y-component position of node 24 (blade 1, node 23), m
         72    5.561E+01                                 F               0         Z-component position of node 24 (blade 1, node 23), m
         73   -6.938E+00                                 F               0         X-component position of node 25 (blade 1, node 24), m
         74    2.720E+01                                 F               0         Y-component position of node 25 (blade 1, node 24), m
         75    5.206E+01                                 F               0         Z-component position of node 25 (blade 1, node 24), m
         76   -7.795E+00                                 F               0         X-component position of node 26 (blade 1, node 25), m
         77    2.846E+01                                 F               0         Y-component position of node 26 (blade 1, node 25), m
         78    4.851E+01                                 F               0         Z-component position of node 26 (blade 1, node 25), m
         79   -8.652E+00                                 F               0         X-component position of node 27 (blade 1, node 26), m
         80    2.973E+01                                 F               0         Y-component position of node 27 (blade 1, node 26), m
         81    4.495E+01                                 F               0         Z-component position of node 27 (blade 1, node 26), m
         82   -9.509E+00                                 F               0         X-component position of node 28 (blade 1, node 27), m
         83    3.100E+01                                 F               0         Y-component position of node 28 (blade 1, node 27), m
         84    4.140E+01                                 F               0         Z-component position of node 28 (blade 1, node 27), m
         85   -1.024E+01                                 F               0         X-component position of node 29 (blade 1, node 28), m
         86    3.208E+01                                 F               0         Y-component position of node 29 (blade 1, node 28), m
         87    3.839E+01                                 F               0         Z-component position of node 29 (blade 1, node 28), m
         88    1.751E+01                                 F               0         X-component position of node 30 (blade 2, node 1), m
         89   -4.062E+00                                 F               0         Y-component position of node 30 (blade 2, node 1), m
         90    1.537E+02                                 F               0         Z-component position of node 30 (blade 2, node 1), m
         91    1.773E+01                                 F               0         X-component position of node 31 (blade 2, node 2), m
         92   -3.189E+00                                 F               0         Y-component position of node 31 (blade 2, node 2), m
         93    1.547E+02                                 F               0         Z-component position of node 31 (blade 2, node 2), m
         94    2.070E+01                                 F               0         X-component position of node 32 (blade 2, node 3), m
         95    8.678E+00                                 F               0         Y-component position of node 32 (blade 2, node 3), m
         96    1.681E+02                                 F               0         Z-component position of node 32 (blade 2, node 3), m
         97    2.133E+01                                 F               0         X-component position of node 33 (blade 2, node 4), m
         98    1.121E+01                                 F               0         Y-component position of node 33 (blade 2, node 4), m
         99    1.710E+02                                 F               0         Z-component position of node 33 (blade 2, node 4), m
        100    2.196E+01                                 F               0         X-component position of node 34 (blade 2, node 5), m
        101    1.374E+01                                 F               0         Y-component position of node 34 (blade 2, node 5), m
        102    1.738E+02                                 F               0         Z-component position of node 34 (blade 2, node 5), m
        103    2.259E+01                                 F               0         X-component position of node 35 (blade 2, node 6), m
        104    1.626E+01                                 F               0         Y-component position of node 35 (blade 2, node 6), m
        105    1.767E+02                                 F               0         Z-component position of node 35 (blade 2, node 6), m
        106    2.323E+01                                 F               0         X-component position of node 36 (blade 2, node 7), m
        107    1.879E+01                                 F               0         Y-component position of node 36 (blade 2, node 7), m
        108    1.795E+02                                 F               0         Z-component position of node 36 (blade 2, node 7), m
        109    2.386E+01                                 F               0         X-component position of node 37 (blade 2, node 8), m
        110    2.132E+01                                 F               0         Y-component position of node 37 (blade 2, node 8), m
        111    1.824E+02                                 F               0         Z-component position of node 37 (blade 2, node 8), m
        112    2.449E+01                                 F               0         X-component position of node 38 (blade 2, node 9), m
        113    2.385E+01                                 F               0         Y-component position of node 38 (blade 2, node 9), m
        114    1.853E+02                                 F               0         Z-component position of node 38 (blade 2, node 9), m
        115    2.512E+01                                 F               0         X-component position of node 39 (blade 2, node 10), m
        116    2.638E+01                                 F               0         Y-component position of node 39 (blade 2, node 10), m
        117    1.881E+02                                 F               0         Z-component position of node 39 (blade 2, node 10), m
        118    2.576E+01                                 F               0         X-component position of node 40 (blade 2, node 11), m
        119    2.891E+01                                 F               0         Y-component position of node 40 (blade 2, node 11), m
        120    1.910E+02                                 F               0         Z-component position of node 40 (blade 2, node 11), m
        121    2.639E+01                                 F               0         X-component position of node 41 (blade 2, node 12), m
        122    3.144E+01                                 F               0         Y-component position of node 41 (blade 2, node 12), m
        123    1.938E+02                                 F               0         Z-component position of node 41 (blade 2, node 12), m
        124    2.702E+01                                 F               0         X-component position of node 42 (blade 2, node 13), m
        125    3.396E+01                                 F               0         Y-component position of node 42 (blade 2, node 13), m
        126    1.967E+02                                 F               0         Z-component position of node 42 (blade 2, node 13), m
        127    2.765E+01                                 F               0         X-component position of node 43 (blade 2, node 14), m
        128    3.649E+01                                 F               0         Y-component position of node 43 (blade 2, node 14), m
        129    1.995E+02                                 F               0         Z-component position of node 43 (blade 2, node 14), m
        130    2.829E+01                                 F               0         X-component position of node 44 (blade 2, node 15), m
        131    3.902E+01                                 F               0         Y-component position of node 44 (blade 2, node 15), m
        132    2.024E+02                                 F               0         Z-component position of node 44 (blade 2, node 15), m
        133    2.892E+01                                 F               0         X-component position of node 45 (blade 2, node 16), m
        134    4.155E+01                                 F               0         Y-component position of node 45 (blade 2, node 16), m
        135    2.053E+02                                 F               0         Z-component position of node 45 (blade 2, node 16), m
        136    2.955E+01                                 F               0         X-component position of node 46 (blade 2, node 17), m
        137    4.408E+01                                 F               0         Y-component position of node 46 (blade 2, node 17), m
        138    2.081E+02                                 F               0         Z-component position of node 46 (blade 2, node 17), m
        139    3.019E+01                                 F               0         X-component position of node 47 (blade 2, node 18), m
        140    4.661E+01                                 F               0         Y-component position of node 47 (blade 2, node 18), m
        141    2.110E+02                                 F               0         Z-component position of node 47 (blade 2, node 18), m
        142    3.082E+01                                 F               0         X-component position of node 48 (blade 2, node 19), m
        143    4.914E+01                                 F               0         Y-component position of node 48 (blade 2, node 19), m
        144    2.138E+02                                 F               0         Z-component position of node 48 (blade 2, node 19), m
        145    3.145E+01                                 F               0         X-component position of node 49 (blade 2, node 20), m
        146    5.167E+01                                 F               0         Y-component position of node 49 (blade 2, node 20), m
        147    2.167E+02                                 F               0         Z-component position of node 49 (blade 2, node 20), m
        148    3.208E+01                                 F               0         X-component position of node 50 (blade 2, node 21), m
        149    5.419E+01                                 F               0         Y-component position of node 50 (blade 2, node 21), m
        150    2.195E+02                                 F               0         Z-component position of node 50 (blade 2, node 21), m
        151    3.272E+01                                 F               0         X-component position of node 51 (blade 2, node 22), m
        152    5.672E+01                                 F               0         Y-component position of node 51 (blade 2, node 22), m
        153    2.224E+02                                 F               0         Z-component position of node 51 (blade 2, node 22), m
        154    3.335E+01                                 F               0         X-component position of node 52 (blade 2, node 23), m
        155    5.925E+01                                 F               0         Y-component position of node 52 (blade 2, node 23), m
        156    2.253E+02                                 F               0         Z-component position of node 52 (blade 2, node 23), m
        157    3.398E+01                                 F               0         X-component position of node 53 (blade 2, node 24), m
        158    6.178E+01                                 F               0         Y-component position of node 53 (blade 2, node 24), m
        159    2.281E+02                                 F               0         Z-component position of node 53 (blade 2, node 24), m
        160    3.461E+01                                 F               0         X-component position of node 54 (blade 2, node 25), m
        161    6.431E+01                                 F               0         Y-component position of node 54 (blade 2, node 25), m
        162    2.310E+02                                 F               0         Z-component position of node 54 (blade 2, node 25), m
        163    3.525E+01                                 F               0         X-component position of node 55 (blade 2, node 26), m
        164    6.684E+01                                 F               0         Y-component position of node 55 (blade 2, node 26), m
        165    2.338E+02                                 F               0         Z-component position of node 55 (blade 2, node 26), m
        166    3.588E+01                                 F               0         X-component position of node 56 (blade 2, node 27), m
        167    6.937E+01                                 F               0         Y-component position of node 56 (blade 2, node 27), m
        168    2.367E+02                                 F               0         Z-component position of node 56 (blade 2, node 27), m
        169    3.642E+01                                 F               0         X-component position of node 57 (blade 2, node 28), m
        170    7.151E+01                                 F               0         Y-component position of node 57 (blade 2, node 28), m
        171    2.391E+02                                 F               0         Z-component position of node 57 (blade 2, node 28), m
        172    1.692E+01                                 F               0         X-component position of node 58 (blade 3, node 1), m
        173   -1.312E+01                                 F               0         Y-component position of node 58 (blade 3, node 1), m
        174    1.506E+02                                 F               0         Z-component position of node 58 (blade 3, node 1), m
        175    1.700E+01                                 F               0         X-component position of node 59 (blade 3, node 2), m
        176   -1.444E+01                                 F               0         Y-component position of node 59 (blade 3, node 2), m
        177    1.509E+02                                 F               0         Z-component position of node 59 (blade 3, node 2), m
        178    1.805E+01                                 F               0         X-component position of node 60 (blade 3, node 3), m
        179   -3.226E+01                                 F               0         Y-component position of node 60 (blade 3, node 3), m
        180    1.541E+02                                 F               0         Z-component position of node 60 (blade 3, node 3), m
        181    1.828E+01                                 F               0         X-component position of node 61 (blade 3, node 4), m
        182   -3.606E+01                                 F               0         Y-component position of node 61 (blade 3, node 4), m
        183    1.548E+02                                 F               0         Z-component position of node 61 (blade 3, node 4), m
        184    1.850E+01                                 F               0         X-component position of node 62 (blade 3, node 5), m
        185   -3.986E+01                                 F               0         Y-component position of node 62 (blade 3, node 5), m
        186    1.555E+02                                 F               0         Z-component position of node 62 (blade 3, node 5), m
        187    1.873E+01                                 F               0         X-component position of node 63 (blade 3, node 6), m
        188   -4.366E+01                                 F               0         Y-component position of node 63 (blade 3, node 6), m
        189    1.562E+02                                 F               0         Z-component position of node 63 (blade 3, node 6), m
        190    1.895E+01                                 F               0         X-component position of node 64 (blade 3, node 7), m
        191   -4.746E+01                                 F               0         Y-component position of node 64 (blade 3, node 7), m
        192    1.569E+02                                 F               0         Z-component position of node 64 (blade 3, node 7), m
        193    1.917E+01                                 F               0         X-component position of node 65 (blade 3, node 8), m
        194   -5.125E+01                                 F               0         Y-component position of node 65 (blade 3, node 8), m
        195    1.576E+02                                 F               0         Z-component position of node 65 (blade 3, node 8), m
        196    1.940E+01                                 F               0         X-component position of node 66 (blade 3, node 9), m
        197   -5.505E+01                                 F               0         Y-component position of node 66 (blade 3, node 9), m
        198    1.583E+02                                 F               0         Z-component position of node 66 (blade 3, node 9), m
        199    1.962E+01                                 F               0         X-component position of node 67 (blade 3, node 10), m
        200   -5.885E+01                                 F               0         Y-component position of node 67 (blade 3, node 10), m
        201    1.590E+02                                 F               0         Z-component position of node 67 (blade 3, node 10), m
        202    1.985E+01                                 F               0         X-component position of node 68 (blade 3, node 11), m
        203   -6.265E+01                                 F               0         Y-component position of node 68 (blade 3, node 11), m
        204    1.597E+02                                 F               0         Z-component position of node 68 (blade 3, node 11), m
        205    2.007E+01                                 F               0         X-component position of node 69 (blade 3, node 12), m
        206   -6.645E+01                                 F               0         Y-component position of node 69 (blade 3, node 12), m
        207    1.604E+02                                 F               0         Z-component position of node 69 (blade 3, node 12), m
        208    2.030E+01                                 F               0         X-component position of node 70 (blade 3, node 13), m
        209   -7.025E+01                                 F               0         Y-component position of node 70 (blade 3, node 13), m
        210    1.611E+02                                 F               0         Z-component position of node 70 (blade 3, node 13), m
        211    2.052E+01                                 F               0         X-component position of node 71 (blade 3, node 14), m