
Linearized model: Predictions were generated on 13-Feb-2024 at 11:29:37 using OpenFAST, compiled as a 64-bit application using single precision at commit v3.5.1
 linked with  NWTC Subroutine Library; ElastoDyn; InflowWind; AeroDyn; ServoDyn; HydroDyn; MAP++ (<1.20.10>, <Oct-20-2023>)

Description from the FAST input file: CCT-9 Campign 4 model. Input files to be run with OpenFAST 3.5.0. GitHub branch from Lu Wang (https://github.com/luwang00/openfast/tree/dev) compiled on March 7, 2023.

Simulation information:
   Simulation time:                  1211.2750 s
   Rotor Speed:                         0.7916 rad/s
   Azimuth:                             0.3563 rad
   Wind Speed:                         16.0000 m/s
   Number of continuous states:        14
   Number of discrete states:           0
   Number of constraint states:         0
   Number of inputs:                 1890
   Number of outputs:                  25
   Jacobians included in this file?    No

Order of continuous states:
   Row/Column Operating Point                                                   Rotating Frame? Derivative Order Description
   ---------- ---------------                                                   --------------- ---------------- -----------
          1     8.64535903931E+000                                                     F               2         Platform horizontal surge translation DOF (internal DOF index = DOF_Sg), m
          2    -6.19755327702E-001                                                     F               2         Platform horizontal sway translation DOF (internal DOF index = DOF_Sw), m
          3    -1.30677968264E-001                                                     F               2         Platform vertical heave translation DOF (internal DOF index = DOF_Hv), m
          4     5.17312698066E-002                                                     F               2         Platform roll tilt rotation DOF (internal DOF index = DOF_R), rad
          5     1.13020502031E-001                                                     F               2         Platform pitch tilt rotation DOF (internal DOF index = DOF_P), rad
          6     5.16449101269E-004                                                     F               2         Platform yaw rotation DOF (internal DOF index = DOF_Y), rad
          7     5.06870460510E+000                                                     F               2         Variable speed generator DOF (internal DOF index = DOF_GeAz), rad
          8     8.19343840703E-005                                                     F               2         First time derivative of Platform horizontal surge translation DOF (internal DOF index = DOF_Sg), m/s
          9     4.01350815082E-004                                                     F               2         First time derivative of Platform horizontal sway translation DOF (internal DOF index = DOF_Sw), m/s
         10     2.46863765642E-003                                                     F               2         First time derivative of Platform vertical heave translation DOF (internal DOF index = DOF_Hv), m/s
         11    -3.06332512992E-005                                                     F               2         First time derivative of Platform roll tilt rotation DOF (internal DOF index = DOF_R), rad/s
         12     1.08539588837E-005                                                     F               2         First time derivative of Platform pitch tilt rotation DOF (internal DOF index = DOF_P), rad/s
         13     2.38134975916E-006                                                     F               2         First time derivative of Platform yaw rotation DOF (internal DOF index = DOF_Y), rad/s
         14     7.91604280472E-001                                                     F               2         First time derivative of Variable speed generator DOF (internal DOF index = DOF_GeAz), rad/s

Order of continuous state derivatives:
   Row/Column Operating Point                                                   Rotating Frame? Derivative Order Description
   ---------- ---------------                                                   --------------- ---------------- -----------
          1     8.19343840703E-005                                                     F               2         First time derivative of Platform horizontal surge translation DOF (internal DOF index = DOF_Sg), m/s
          2     4.01350815082E-004                                                     F               2         First time derivative of Platform horizontal sway translation DOF (internal DOF index = DOF_Sw), m/s
          3     2.46863765642E-003                                                     F               2         First time derivative of Platform vertical heave translation DOF (internal DOF index = DOF_Hv), m/s
          4    -3.06332512992E-005                                                     F               2         First time derivative of Platform roll tilt rotation DOF (internal DOF index = DOF_R), rad/s
          5     1.08539588837E-005                                                     F               2         First time derivative of Platform pitch tilt rotation DOF (internal DOF index = DOF_P), rad/s
          6     2.38134975916E-006                                                     F               2         First time derivative of Platform yaw rotation DOF (internal DOF index = DOF_Y), rad/s
          7     7.91604280472E-001                                                     F               2         First time derivative of Variable speed generator DOF (internal DOF index = DOF_GeAz), rad/s
          8    -1.48466669998E-005                                                     F               2         First time derivative of First time derivative of Platform horizontal surge translation DOF (internal DOF index = DOF_Sg), m/s/s
          9     7.37137015676E-005                                                     F               2         First time derivative of First time derivative of Platform horizontal sway translation DOF (internal DOF index = DOF_Sw), m/s/s
         10    -2.20647430979E-003                                                     F               2         First time derivative of First time derivative of Platform vertical heave translation DOF (internal DOF index = DOF_Hv), m/s/s
         11     3.58856004823E-006                                                     F               2         First time derivative of First time derivative of Platform roll tilt rotation DOF (internal DOF index = DOF_R), rad/s/s
         12    -6.32990008853E-007                                                     F               2         First time derivative of First time derivative of Platform pitch tilt rotation DOF (internal DOF index = DOF_P), rad/s/s
         13     1.49096558744E-005                                                     F               2         First time derivative of First time derivative of Platform yaw rotation DOF (internal DOF index = DOF_Y), rad/s/s
         14    -1.79017981282E-004                                                     F               2         First time derivative of First time derivative of Variable speed generator DOF (internal DOF index = DOF_GeAz), rad/s/s

Order of inputs:
     Column   Operating Point                                                   Rotating Frame? Derivative Order Description
   ---------- ---------------                                                   --------------- ---------------- -----------
          1     1.79046798706E+002                                                     F               0         Blade 1 X force, node 1, N
          2     1.10511558533E+002                                                     F               0         Blade 1 Y force, node 1, N
          3     8.64489078522E+000                                                     F               0         Blade 1 Z force, node 1, N
          4     7.34640686035E+002                                                     F               0         Blade 1 X force, node 2, N
          5     1.87393722534E+002                                                     F               0         Blade 1 Y force, node 2, N
          6    -8.20617828369E+001                                                     F               0         Blade 1 Z force, node 2, N
          7     9.22818359375E+002                                                     F               0         Blade 1 X force, node 3, N
          8    -6.80778145790E-001                                                     F               0         Blade 1 Y force, node 3, N
          9    -2.07375244141E+002                                                     F               0         Blade 1 Z force, node 3, N
         10     1.18907800293E+003                                                     F               0         Blade 1 X force, node 4, N
         11    -1.67509460449E+002                                                     F               0         Blade 1 Y force, node 4, N
         12    -3.40823822021E+002                                                     F               0         Blade 1 Z force, node 4, N
         13     1.45534838867E+003                                                     F               0         Blade 1 X force, node 5, N
         14    -3.34341064453E+002                                                     F               0         Blade 1 Y force, node 5, N
         15    -4.74276184082E+002                                                     F               0         Blade 1 Z force, node 5, N
         16     1.72161083984E+003                                                     F               0         Blade 1 X force, node 6, N
         17    -5.01171569824E+002                                                     F               0         Blade 1 Y force, node 6, N
         18    -6.07726257324E+002                                                     F               0         Blade 1 Z force, node 6, N
         19     1.98786010742E+003                                                     F               0         Blade 1 X force, node 7, N
         20    -6.67997680664E+002                                                     F               0         Blade 1 Y force, node 7, N
         21    -7.41171386719E+002                                                     F               0         Blade 1 Z force, node 7, N
         22     2.25411962891E+003                                                     F               0         Blade 1 X force, node 8, N
         23    -8.34826354980E+002                                                     F               0         Blade 1 Y force, node 8, N
         24    -8.74619934082E+002                                                     F               0         Blade 1 Z force, node 8, N
         25     2.52037939453E+003                                                     F               0         Blade 1 X force, node 9, N
         26    -1.00165509033E+003                                                     F               0         Blade 1 Y force, node 9, N
         27    -1.00806854248E+003                                                     F               0         Blade 1 Z force, node 9, N
         28     2.78663867188E+003                                                     F               0         Blade 1 X force, node 10, N
         29    -1.16848376465E+003                                                     F               0         Blade 1 Y force, node 10, N
         30    -1.14151721191E+003                                                     F               0         Blade 1 Z force, node 10, N
         31     3.05289868164E+003                                                     F               0         Blade 1 X force, node 11, N
         32    -1.33531237793E+003                                                     F               0         Blade 1 Y force, node 11, N
         33    -1.27496582031E+003                                                     F               0         Blade 1 Z force, node 11, N
         34     3.31918115234E+003                                                     F               0         Blade 1 X force, node 12, N
         35    -1.50215173340E+003                                                     F               0         Blade 1 Y force, node 12, N
         36    -1.40842431641E+003                                                     F               0         Blade 1 Z force, node 12, N
         37     3.58544409180E+003                                                     F               0         Blade 1 X force, node 13, N
         38    -1.66898217773E+003                                                     F               0         Blade 1 Y force, node 13, N
         39    -1.54187426758E+003                                                     F               0         Blade 1 Z force, node 13, N
         40     3.85168066406E+003                                                     F               0         Blade 1 X force, node 14, N
         41    -1.83580065918E+003                                                     F               0         Blade 1 Y force, node 14, N
         42    -1.67531335449E+003                                                     F               0         Blade 1 Z force, node 14, N
         43     4.11796826172E+003                                                     F               0         Blade 1 X force, node 15, N
         44    -2.00264294434E+003                                                     F               0         Blade 1 Y force, node 15, N
         45    -1.80877416992E+003                                                     F               0         Blade 1 Z force, node 15, N
         46     4.38419921875E+003                                                     F               0         Blade 1 X force, node 16, N
         47    -2.16945751953E+003                                                     F               0         Blade 1 Y force, node 16, N
         48    -1.94221008301E+003                                                     F               0         Blade 1 Z force, node 16, N
         49     5.38739599609E+003                                                     F               0         Blade 1 X force, node 17, N
         50    -2.69955395508E+003                                                     F               0         Blade 1 Y force, node 17, N
         51    -2.40150708008E+003                                                     F               0         Blade 1 Z force, node 17, N
         52     4.07314843750E+003                                                     F               0         Blade 1 X force, node 18, N
         53    -1.99865637207E+003                                                     F               0         Blade 1 Y force, node 18, N
         54    -1.79695581055E+003                                                     F               0         Blade 1 Z force, node 18, N
         55     4.94177001953E+003                                                     F               0         Blade 1 X force, node 19, N
         56    -2.35048095703E+003                                                     F               0         Blade 1 Y force, node 19, N
         57    -2.14729809570E+003                                                     F               0         Blade 1 Z force, node 19, N
         58     4.16880371094E+003                                                     F               0         Blade 1 X force, node 20, N
         59    -1.92357958984E+003                                                     F               0         Blade 1 Y force, node 20, N
         60    -1.78525268555E+003                                                     F               0         Blade 1 Z force, node 20, N
         61     6.07811328125E+003                                                     F               0         Blade 1 X force, node 21, N
         62    -2.70741406250E+003                                                     F               0         Blade 1 Y force, node 21, N
         63    -2.55997241211E+003                                                     F               0         Blade 1 Z force, node 21, N
         64     5.29068359375E+003                                                     F               0         Blade 1 X force, node 22, N
         65    -2.27579394531E+003                                                     F               0         Blade 1 Y force, node 22, N
         66    -2.19259667969E+003                                                     F               0         Blade 1 Z force, node 22, N
         67     5.36673291016E+003                                                     F               0         Blade 1 X force, node 23, N
         68    -2.23517260742E+003                                                     F               0         Blade 1 Y force, node 23, N
         69    -2.19171606445E+003                                                     F               0         Blade 1 Z force, node 23, N
         70     5.53339941406E+003                                                     F               0         Blade 1 X force, node 24, N
         71    -2.23207470703E+003                                                     F               0         Blade 1 Y force, node 24, N
         72    -2.22774633789E+003                                                     F               0         Blade 1 Z force, node 24, N
         73     5.58532617188E+003                                                     F               0         Blade 1 X force, node 25, N
         74    -2.18445678711E+003                                                     F               0         Blade 1 Y force, node 25, N
         75    -2.21836157227E+003                                                     F               0         Blade 1 Z force, node 25, N
         76     5.66444433594E+003                                                     F               0         Blade 1 X force, node 26, N
         77    -2.14846752930E+003                                                     F               0         Blade 1 Y force, node 26, N
         78    -2.22021606445E+003                                                     F               0         Blade 1 Z force, node 26, N
         79     6.68235107422E+003                                                     F               0         Blade 1 X force, node 27, N
         80    -2.45346752930E+003                                                     F               0         Blade 1 Y force, node 27, N
         81    -2.58337084961E+003                                                     F               0         Blade 1 Z force, node 27, N
         82     4.87488037109E+003                                                     F               0         Blade 1 X force, node 28, N
         83    -1.73584582520E+003                                                     F               0         Blade 1 Y force, node 28, N
         84    -1.86075476074E+003                                                     F               0         Blade 1 Z force, node 28, N
         85     5.88142822266E+003                                                     F               0         Blade 1 X force, node 29, N
         86    -2.04138537598E+003                                                     F               0         Blade 1 Y force, node 29, N
         87    -2.22159887695E+003                                                     F               0         Blade 1 Z force, node 29, N
         88     4.93741845703E+003                                                     F               0         Blade 1 X force, node 30, N
         89    -1.67043688965E+003                                                     F               0         Blade 1 Y force, node 30, N
         90    -1.84589147949E+003                                                     F               0         Blade 1 Z force, node 30, N
         91     7.02170800781E+003                                                     F               0         Blade 1 X force, node 31, N
         92    -2.30592822266E+003                                                     F               0         Blade 1 Y force, node 31, N
         93    -2.59434033203E+003                                                     F               0         Blade 1 Z force, node 31, N
         94     6.06691162109E+003                                                     F               0         Blade 1 X force, node 32, N
         95    -1.93501293945E+003                                                     F               0         Blade 1 Y force, node 32, N
         96    -2.21622705078E+003                                                     F               0         Blade 1 Z force, node 32, N
         97     6.12155566406E+003                                                     F               0         Blade 1 X force, node 33, N
         98    -1.89931164551E+003                                                     F               0         Blade 1 Y force, node 33, N
         99    -2.21271655273E+003                                                     F               0         Blade 1 Z force, node 33, N
        100     6.17327734375E+003                                                     F               0         Blade 1 X force, node 34, N
        101    -1.86334912109E+003                                                     F               0         Blade 1 Y force, node 34, N
        102    -2.20843530273E+003                                                     F               0         Blade 1 Z force, node 34, N
        103     6.20703320312E+003                                                     F               0         Blade 1 X force, node 35, N
        104    -1.82439758301E+003                                                     F               0         Blade 1 Y force, node 35, N
        105    -2.19880175781E+003                                                     F               0         Blade 1 Z force, node 35, N
        106     6.23464697266E+003                                                     F               0         Blade 1 X force, node 36, N
        107    -1.78421228027E+003                                                     F               0         Blade 1 Y force, node 36, N
        108    -2.18724487305E+003                                                     F               0         Blade 1 Z force, node 36, N
        109     7.31908007812E+003                                                     F               0         Blade 1 X force, node 37, N
        110    -2.03509265137E+003                                                     F               0         Blade 1 Y force, node 37, N
        111    -2.54141894531E+003                                                     F               0         Blade 1 Z force, node 37, N
        112     5.23134716797E+003                                                     F               0         Blade 1 X force, node 38, N
        113    -1.41542077637E+003                                                     F               0         Blade 1 Y force, node 38, N
        114    -1.79918591309E+003                                                     F               0         Blade 1 Z force, node 38, N
        115     6.31034277344E+003                                                     F               0         Blade 1 X force, node 39, N
        116    -1.66882458496E+003                                                     F               0         Blade 1 Y force, node 39, N
        117    -2.15325439453E+003                                                     F               0         Blade 1 Z force, node 39, N
        118     5.29735009766E+003                                                     F               0         Blade 1 X force, node 40, N
        119    -1.36866296387E+003                                                     F               0         Blade 1 Y force, node 40, N
        120    -1.79334008789E+003                                                     F               0         Blade 1 Z force, node 40, N
        121     7.38661523438E+003                                                     F               0         Blade 1 X force, node 41, N
        122    -1.85725207520E+003                                                     F               0         Blade 1 Y force, node 41, N
        123    -2.47800683594E+003                                                     F               0         Blade 1 Z force, node 41, N
        124     6.36267187500E+003                                                     F               0         Blade 1 X force, node 42, N
        125    -1.55747473145E+003                                                     F               0         Blade 1 Y force, node 42, N
        126    -2.11580444336E+003                                                     F               0         Blade 1 Z force, node 42, N
        127     6.37356542969E+003                                                     F               0         Blade 1 X force, node 43, N
        128    -1.52056726074E+003                                                     F               0         Blade 1 Y force, node 43, N
        129    -2.10194409180E+003                                                     F               0         Blade 1 Z force, node 43, N
        130     6.41540185547E+003                                                     F               0         Blade 1 X force, node 44, N
        131    -1.49127880859E+003                                                     F               0         Blade 1 Y force, node 44, N
        132    -2.09839257812E+003                                                     F               0         Blade 1 Z force, node 44, N
        133     6.34552099609E+003                                                     F               0         Blade 1 X force, node 45, N
        134    -1.43826013184E+003                                                     F               0         Blade 1 Y force, node 45, N
        135    -2.05928955078E+003                                                     F               0         Blade 1 Z force, node 45, N
        136     6.37362597656E+003                                                     F               0         Blade 1 X force, node 46, N
        137    -1.40834277344E+003                                                     F               0         Blade 1 Y force, node 46, N
        138    -2.05237915039E+003                                                     F               0         Blade 1 Z force, node 46, N
        139     7.47547998047E+003                                                     F               0         Blade 1 X force, node 47, N
        140    -1.60640161133E+003                                                     F               0         Blade 1 Y force, node 47, N
        141    -2.38712646484E+003                                                     F               0         Blade 1 Z force, node 47, N
        142     5.25074023438E+003                                                     F               0         Blade 1 X force, node 48, N
        143    -1.09856372070E+003                                                     F               0         Blade 1 Y force, node 48, N
        144    -1.66355627441E+003                                                     F               0         Blade 1 Z force, node 48, N
        145     6.34633544922E+003                                                     F               0         Blade 1 X force, node 49, N
        146    -1.29828332520E+003                                                     F               0         Blade 1 Y force, node 49, N
        147    -1.99763330078E+003                                                     F               0         Blade 1 Z force, node 49, N
        148     5.33762451172E+003                                                     F               0         Blade 1 X force, node 50, N
        149    -1.06672277832E+003                                                     F               0         Blade 1 Y force, node 50, N
        150    -1.66898608398E+003                                                     F               0         Blade 1 Z force, node 50, N
        151     7.31749316406E+003                                                     F               0         Blade 1 X force, node 51, N
        152    -1.42291540527E+003                                                     F               0         Blade 1 Y force, node 51, N
        153    -2.27061450195E+003                                                     F               0         Blade 1 Z force, node 51, N
        154     6.30515673828E+003                                                     F               0         Blade 1 X force, node 52, N
        155    -1.19323840332E+003                                                     F               0         Blade 1 Y force, node 52, N
        156    -1.94198608398E+003                                                     F               0         Blade 1 Z force, node 52, N
        157     6.28913281250E+003                                                     F               0         Blade 1 X force, node 53, N
        158    -1.15932165527E+003                                                     F               0         Blade 1 Y force, node 53, N