
Linearized model: Predictions were generated on 13-Feb-2024 at 12:12:09 using OpenFAST, compiled as a 64-bit application using single precision at commit v3.5.1
 linked with  NWTC Subroutine Library; ElastoDyn; InflowWind; AeroDyn; ServoDyn; HydroDyn; MAP++ (<1.20.10>, <Oct-20-2023>)

Description from the FAST input file: CCT-9 Campign 4 model. Input files to be run with OpenFAST 3.5.0. GitHub branch from Lu Wang (https://github.com/luwang00/openfast/tree/dev) compiled on March 7, 2023.

Simulation information:
   Simulation time:                   771.3250 s
   Rotor Speed:                         0.7921 rad/s
   Azimuth:                             0.7044 rad
   Wind Speed:                         24.0000 m/s
   Number of continuous states:        22
   Number of discrete states:           0
   Number of constraint states:         0
   Number of inputs:                 1890
   Number of outputs:                  25
   Jacobians included in this file?    No

Order of continuous states:
   Row/Column Operating Point                                                   Rotating Frame? Derivative Order Description
   ---------- ---------------                                                   --------------- ---------------- -----------
          1     6.82408761978E+000                                                     F               2         Platform horizontal surge translation DOF (internal DOF index = DOF_Sg), m
          2    -8.28498363495E-001                                                     F               2         Platform horizontal sway translation DOF (internal DOF index = DOF_Sw), m
          3    -1.05975531042E-001                                                     F               2         Platform vertical heave translation DOF (internal DOF index = DOF_Hv), m
          4     5.44359236956E-002                                                     F               2         Platform roll tilt rotation DOF (internal DOF index = DOF_R), rad
          5     9.51598733664E-002                                                     F               2         Platform pitch tilt rotation DOF (internal DOF index = DOF_P), rad
          6    -9.31398104876E-003                                                     F               2         Platform yaw rotation DOF (internal DOF index = DOF_Y), rad
          7     5.62748849392E-001                                                     F               2         1st tower fore-aft bending mode DOF (internal DOF index = DOF_TFA1), m
          8     2.62405306101E-001                                                     F               2         1st tower side-to-side bending mode DOF (internal DOF index = DOF_TSS1), m
          9     1.50703615509E-003                                                     F               2         2nd tower fore-aft bending mode DOF (internal DOF index = DOF_TFA2), m
         10    -2.93450313620E-004                                                     F               2         2nd tower side-to-side bending mode DOF (internal DOF index = DOF_TSS2), m
         11     5.41678094864E+000                                                     F               2         Variable speed generator DOF (internal DOF index = DOF_GeAz), rad
         12     1.85579515528E-003                                                     F               2         First time derivative of Platform horizontal surge translation DOF (internal DOF index = DOF_Sg), m/s
         13    -1.20889977552E-003                                                     F               2         First time derivative of Platform horizontal sway translation DOF (internal DOF index = DOF_Sw), m/s
         14     1.50685501285E-003                                                     F               2         First time derivative of Platform vertical heave translation DOF (internal DOF index = DOF_Hv), m/s
         15     9.92494387901E-005                                                     F               2         First time derivative of Platform roll tilt rotation DOF (internal DOF index = DOF_R), rad/s
         16     1.92571431398E-004                                                     F               2         First time derivative of Platform pitch tilt rotation DOF (internal DOF index = DOF_P), rad/s
         17     5.48279285795E-006                                                     F               2         First time derivative of Platform yaw rotation DOF (internal DOF index = DOF_Y), rad/s
         18    -4.64651323855E-002                                                     F               2         First time derivative of 1st tower fore-aft bending mode DOF (internal DOF index = DOF_TFA1), m/s
         19    -1.84149015695E-002                                                     F               2         First time derivative of 1st tower side-to-side bending mode DOF (internal DOF index = DOF_TSS1), m/s
         20     7.94801453594E-005                                                     F               2         First time derivative of 2nd tower fore-aft bending mode DOF (internal DOF index = DOF_TFA2), m/s
         21     1.30764974529E-005                                                     F               2         First time derivative of 2nd tower side-to-side bending mode DOF (internal DOF index = DOF_TSS2), m/s
         22     7.92081832886E-001                                                     F               2         First time derivative of Variable speed generator DOF (internal DOF index = DOF_GeAz), rad/s

Order of continuous state derivatives:
   Row/Column Operating Point                                                   Rotating Frame? Derivative Order Description
   ---------- ---------------                                                   --------------- ---------------- -----------
          1     1.85579515528E-003                                                     F               2         First time derivative of Platform horizontal surge translation DOF (internal DOF index = DOF_Sg), m/s
          2    -1.20889977552E-003                                                     F               2         First time derivative of Platform horizontal sway translation DOF (internal DOF index = DOF_Sw), m/s
          3     1.50685501285E-003                                                     F               2         First time derivative of Platform vertical heave translation DOF (internal DOF index = DOF_Hv), m/s
          4     9.92494387901E-005                                                     F               2         First time derivative of Platform roll tilt rotation DOF (internal DOF index = DOF_R), rad/s
          5     1.92571431398E-004                                                     F               2         First time derivative of Platform pitch tilt rotation DOF (internal DOF index = DOF_P), rad/s
          6     5.48279285795E-006                                                     F               2         First time derivative of Platform yaw rotation DOF (internal DOF index = DOF_Y), rad/s
          7    -4.64651323855E-002                                                     F               2         First time derivative of 1st tower fore-aft bending mode DOF (internal DOF index = DOF_TFA1), m/s
          8    -1.84149015695E-002                                                     F               2         First time derivative of 1st tower side-to-side bending mode DOF (internal DOF index = DOF_TSS1), m/s
          9     7.94801453594E-005                                                     F               2         First time derivative of 2nd tower fore-aft bending mode DOF (internal DOF index = DOF_TFA2), m/s
         10     1.30764974529E-005                                                     F               2         First time derivative of 2nd tower side-to-side bending mode DOF (internal DOF index = DOF_TSS2), m/s
         11     7.92081832886E-001                                                     F               2         First time derivative of Variable speed generator DOF (internal DOF index = DOF_GeAz), rad/s
         12     7.33746215701E-003                                                     F               2         First time derivative of First time derivative of Platform horizontal surge translation DOF (internal DOF index = DOF_Sg), m/s/s
         13     2.95352027752E-003                                                     F               2         First time derivative of First time derivative of Platform horizontal sway translation DOF (internal DOF index = DOF_Sw), m/s/s
         14    -1.76602846477E-003                                                     F               2         First time derivative of First time derivative of Platform vertical heave translation DOF (internal DOF index = DOF_Hv), m/s/s
         15    -1.65626304806E-004                                                     F               2         First time derivative of First time derivative of Platform roll tilt rotation DOF (internal DOF index = DOF_R), rad/s/s
         16     3.88570479117E-004                                                     F               2         First time derivative of First time derivative of Platform pitch tilt rotation DOF (internal DOF index = DOF_P), rad/s/s
         17     3.31733972416E-005                                                     F               2         First time derivative of First time derivative of Platform yaw rotation DOF (internal DOF index = DOF_Y), rad/s/s
         18    -8.55133086443E-002                                                     F               2         First time derivative of First time derivative of 1st tower fore-aft bending mode DOF (internal DOF index = DOF_TFA1), m/s/s
         19     2.46185492724E-002                                                     F               2         First time derivative of First time derivative of 1st tower side-to-side bending mode DOF (internal DOF index = DOF_TSS1), m/s/s
         20    -2.11887178011E-003                                                     F               2         First time derivative of First time derivative of 2nd tower fore-aft bending mode DOF (internal DOF index = DOF_TFA2), m/s/s
         21     4.82968425786E-005                                                     F               2         First time derivative of First time derivative of 2nd tower side-to-side bending mode DOF (internal DOF index = DOF_TSS2), m/s/s
         22     4.98821318615E-004                                                     F               2         First time derivative of First time derivative of Variable speed generator DOF (internal DOF index = DOF_GeAz), rad/s/s

Order of inputs:
     Column   Operating Point                                                   Rotating Frame? Derivative Order Description
   ---------- ---------------                                                   --------------- ---------------- -----------
          1     4.12794525146E+002                                                     F               0         Blade 1 X force, node 1, N
          2     1.66992324829E+002                                                     F               0         Blade 1 Y force, node 1, N
          3     7.68536453247E+001                                                     F               0         Blade 1 Z force, node 1, N
          4     1.57178637695E+003                                                     F               0         Blade 1 X force, node 2, N
          5     2.65278289795E+002                                                     F               0         Blade 1 Y force, node 2, N
          6    -6.91107788086E+001                                                     F               0         Blade 1 Z force, node 2, N
          7     1.75261645508E+003                                                     F               0         Blade 1 X force, node 3, N
          8    -6.10994415283E+001                                                     F               0         Blade 1 Y force, node 3, N
          9    -4.25455444336E+002                                                     F               0         Blade 1 Z force, node 3, N
         10     2.09819799805E+003                                                     F               0         Blade 1 X force, node 4, N
         11    -3.57742797852E+002                                                     F               0         Blade 1 Y force, node 4, N
         12    -7.87161560059E+002                                                     F               0         Blade 1 Z force, node 4, N
         13     2.44379760742E+003                                                     F               0         Blade 1 X force, node 5, N
         14    -6.54391784668E+002                                                     F               0         Blade 1 Y force, node 5, N
         15    -1.14887719727E+003                                                     F               0         Blade 1 Z force, node 5, N
         16     2.78938256836E+003                                                     F               0         Blade 1 X force, node 6, N
         17    -9.51038330078E+002                                                     F               0         Blade 1 Y force, node 6, N
         18    -1.51058728027E+003                                                     F               0         Blade 1 Z force, node 6, N
         19     3.13494750977E+003                                                     F               0         Blade 1 X force, node 7, N
         20    -1.24767663574E+003                                                     F               0         Blade 1 Y force, node 7, N
         21    -1.87228491211E+003                                                     F               0         Blade 1 Z force, node 7, N
         22     3.48052880859E+003                                                     F               0         Blade 1 X force, node 8, N
         23    -1.54431994629E+003                                                     F               0         Blade 1 Y force, node 8, N
         24    -2.23399121094E+003                                                     F               0         Blade 1 Z force, node 8, N
         25     3.82611059570E+003                                                     F               0         Blade 1 X force, node 9, N
         26    -1.84096337891E+003                                                     F               0         Blade 1 Y force, node 9, N
         27    -2.59569726562E+003                                                     F               0         Blade 1 Z force, node 9, N
         28     4.17169189453E+003                                                     F               0         Blade 1 X force, node 10, N
         29    -2.13760644531E+003                                                     F               0         Blade 1 Y force, node 10, N
         30    -2.95740356445E+003                                                     F               0         Blade 1 Z force, node 10, N
         31     4.51727392578E+003                                                     F               0         Blade 1 X force, node 11, N
         32    -2.43425000000E+003                                                     F               0         Blade 1 Y force, node 11, N
         33    -3.31910961914E+003                                                     F               0         Blade 1 Z force, node 11, N
         34     4.86288916016E+003                                                     F               0         Blade 1 X force, node 12, N
         35    -2.73091259766E+003                                                     F               0         Blade 1 Y force, node 12, N
         36    -3.68084204102E+003                                                     F               0         Blade 1 Z force, node 12, N
         37     5.20847363281E+003                                                     F               0         Blade 1 X force, node 13, N
         38    -3.02755932617E+003                                                     F               0         Blade 1 Y force, node 13, N
         39    -4.04255200195E+003                                                     F               0         Blade 1 Z force, node 13, N
         40     5.55402294922E+003                                                     F               0         Blade 1 X force, node 14, N
         41    -3.32418383789E+003                                                     F               0         Blade 1 Y force, node 14, N
         42    -4.40423291016E+003                                                     F               0         Blade 1 Z force, node 14, N
         43     5.89964404297E+003                                                     F               0         Blade 1 X force, node 15, N
         44    -3.62085156250E+003                                                     F               0         Blade 1 Y force, node 15, N
         45    -4.76597119141E+003                                                     F               0         Blade 1 Z force, node 15, N
         46     6.24518505859E+003                                                     F               0         Blade 1 X force, node 16, N
         47    -3.91746948242E+003                                                     F               0         Blade 1 Y force, node 16, N
         48    -5.12764453125E+003                                                     F               0         Blade 1 Z force, node 16, N
         49     7.62931689453E+003                                                     F               0         Blade 1 X force, node 17, N
         50    -4.86725634766E+003                                                     F               0         Blade 1 Y force, node 17, N
         51    -6.34370068359E+003                                                     F               0         Blade 1 Z force, node 17, N
         52     5.71176757812E+003                                                     F               0         Blade 1 X force, node 18, N
         53    -3.58572583008E+003                                                     F               0         Blade 1 Y force, node 18, N
         54    -4.69246826172E+003                                                     F               0         Blade 1 Z force, node 18, N
         55     6.86108593750E+003                                                     F               0         Blade 1 X force, node 19, N
         56    -4.19221240234E+003                                                     F               0         Blade 1 Y force, node 19, N
         57    -5.52439453125E+003                                                     F               0         Blade 1 Z force, node 19, N
         58     5.73316015625E+003                                                     F               0         Blade 1 X force, node 20, N
         59    -3.41050927734E+003                                                     F               0         Blade 1 Y force, node 20, N
         60    -4.52589208984E+003                                                     F               0         Blade 1 Z force, node 20, N
         61     8.26936523438E+003                                                     F               0         Blade 1 X force, node 21, N
         62    -4.76840332031E+003                                                     F               0         Blade 1 Y force, node 21, N
         63    -6.38079785156E+003                                                     F               0         Blade 1 Z force, node 21, N
         64     7.12383203125E+003                                                     F               0         Blade 1 X force, node 22, N
         65    -3.98484228516E+003                                                     F               0         Blade 1 Y force, node 22, N
         66    -5.37680664062E+003                                                     F               0         Blade 1 Z force, node 22, N
         67     7.15895605469E+003                                                     F               0         Blade 1 X force, node 23, N
         68    -3.89211767578E+003                                                     F               0         Blade 1 Y force, node 23, N
         69    -5.29362207031E+003                                                     F               0         Blade 1 Z force, node 23, N
         70     7.31539892578E+003                                                     F               0         Blade 1 X force, node 24, N
         71    -3.86537133789E+003                                                     F               0         Blade 1 Y force, node 24, N
         72    -5.30016552734E+003                                                     F               0         Blade 1 Z force, node 24, N
         73     7.32425732422E+003                                                     F               0         Blade 1 X force, node 25, N
         74    -3.76482299805E+003                                                     F               0         Blade 1 Y force, node 25, N
         75    -5.20386230469E+003                                                     F               0         Blade 1 Z force, node 25, N
         76     7.37026513672E+003                                                     F               0         Blade 1 X force, node 26, N
         77    -3.68527465820E+003                                                     F               0         Blade 1 Y force, node 26, N
         78    -5.13581298828E+003                                                     F               0         Blade 1 Z force, node 26, N
         79     8.62328613281E+003                                                     F               0         Blade 1 X force, node 27, N
         80    -4.18599414062E+003                                                     F               0         Blade 1 Y force, node 27, N
         81    -5.88613623047E+003                                                     F               0         Blade 1 Z force, node 27, N
         82     6.23259179688E+003                                                     F               0         Blade 1 X force, node 28, N
         83    -2.94211450195E+003                                                     F               0         Blade 1 Y force, node 28, N
         84    -4.17290087891E+003                                                     F               0         Blade 1 Z force, node 28, N
         85     7.45672363281E+003                                                     F               0         Blade 1 X force, node 29, N
         86    -3.43810083008E+003                                                     F               0         Blade 1 Y force, node 29, N
         87    -4.91257373047E+003                                                     F               0         Blade 1 Z force, node 29, N
         88     6.20848583984E+003                                                     F               0         Blade 1 X force, node 30, N
         89    -2.79497167969E+003                                                     F               0         Blade 1 Y force, node 30, N
         90    -4.02423193359E+003                                                     F               0         Blade 1 Z force, node 30, N
         91     8.73012792969E+003                                                     F               0         Blade 1 X force, node 31, N
         92    -3.82291528320E+003                                                     F               0         Blade 1 Y force, node 31, N
         93    -5.55400830078E+003                                                     F               0         Blade 1 Z force, node 31, N
         94     7.43290185547E+003                                                     F               0         Blade 1 X force, node 32, N
         95    -3.16936474609E+003                                                     F               0         Blade 1 Y force, node 32, N
         96    -4.64526855469E+003                                                     F               0         Blade 1 Z force, node 32, N
         97     7.39521093750E+003                                                     F               0         Blade 1 X force, node 33, N
         98    -3.07325366211E+003                                                     F               0         Blade 1 Y force, node 33, N
         99    -4.54358056641E+003                                                     F               0         Blade 1 Z force, node 33, N
        100     7.35202929688E+003                                                     F               0         Blade 1 X force, node 34, N
        101    -2.97685498047E+003                                                     F               0         Blade 1 Y force, node 34, N
        102    -4.44046533203E+003                                                     F               0         Blade 1 Z force, node 34, N
        103     7.27930859375E+003                                                     F               0         Blade 1 X force, node 35, N
        104    -2.87616528320E+003                                                     F               0         Blade 1 Y force, node 35, N
        105    -4.32699658203E+003                                                     F               0         Blade 1 Z force, node 35, N
        106     7.19726464844E+003                                                     F               0         Blade 1 X force, node 36, N
        107    -2.77363476562E+003                                                     F               0         Blade 1 Y force, node 36, N
        108    -4.20978466797E+003                                                     F               0         Blade 1 Z force, node 36, N
        109     8.30578710938E+003                                                     F               0         Blade 1 X force, node 37, N
        110    -3.11355151367E+003                                                     F               0         Blade 1 Y force, node 37, N
        111    -4.77297656250E+003                                                     F               0         Blade 1 Z force, node 37, N
        112     5.82371728516E+003                                                     F               0         Blade 1 X force, node 38, N
        113    -2.12742382812E+003                                                     F               0         Blade 1 Y force, node 38, N
        114    -3.29227978516E+003                                                     F               0         Blade 1 Z force, node 38, N
        115     6.90359716797E+003                                                     F               0         Blade 1 X force, node 39, N
        116    -2.46752441406E+003                                                     F               0         Blade 1 Y force, node 39, N
        117    -3.84967285156E+003                                                     F               0         Blade 1 Z force, node 39, N
        118     5.69380419922E+003                                                     F               0         Blade 1 X force, node 40, N
        119    -1.98877539062E+003                                                     F               0         Blade 1 Y force, node 40, N
        120    -3.12981884766E+003                                                     F               0         Blade 1 Z force, node 40, N
        121     7.76477929688E+003                                                     F               0         Blade 1 X force, node 41, N
        122    -2.63953784180E+003                                                     F               0         Blade 1 Y force, node 41, N
        123    -4.19733642578E+003                                                     F               0         Blade 1 Z force, node 41, N
        124     6.52019238281E+003                                                     F               0         Blade 1 X force, node 42, N
        125    -2.15886596680E+003                                                     F               0         Blade 1 Y force, node 42, N
        126    -3.46834326172E+003                                                     F               0         Blade 1 Z force, node 42, N
        127     6.37173876953E+003                                                     F               0         Blade 1 X force, node 43, N
        128    -2.05481689453E+003                                                     F               0         Blade 1 Y force, node 43, N
        129    -3.33578759766E+003                                                     F               0         Blade 1 Z force, node 43, N
        130     6.25245947266E+003                                                     F               0         Blade 1 X force, node 44, N
        131    -1.96146618652E+003                                                     F               0         Blade 1 Y force, node 44, N
        132    -3.21976489258E+003                                                     F               0         Blade 1 Z force, node 44, N
        133     6.02228417969E+003                                                     F               0         Blade 1 X force, node 45, N
        134    -1.84036975098E+003                                                     F               0         Blade 1 Y force, node 45, N