
Linearized model: Predictions were generated on 12-Feb-2024 at 15:30:16 using OpenFAST, compiled as a 64-bit application using single precision at commit v3.5.1
 linked with  NWTC Subroutine Library; ElastoDyn; InflowWind; AeroDyn; ServoDyn; HydroDyn; MAP++ (<1.20.10>, <Oct-20-2023>)

Description from the FAST input file: CCT-9 Campign 4 model. Input files to be run with OpenFAST 3.5.0. GitHub branch from Lu Wang (https://github.com/luwang00/openfast/tree/dev) compiled on March 7, 2023.

Simulation information:
   Simulation time:                  1004.2250 s
   Rotor Speed:                         1.0403 rad/s
   Azimuth:                             5.4418 rad
   Wind Speed:                         12.0000 m/s
   Number of continuous states:        22
   Number of discrete states:           0
   Number of constraint states:         0
   Number of inputs:                 3988
   Number of outputs:                  42
   Jacobians included in this file?    No

Order of continuous states:
   Row/Column Operating Point                     Rotating Frame? Derivative Order Description
   ---------- ---------------                     --------------- ---------------- -----------
          1    1.229E+01                                 F               2         ED Platform horizontal surge translation DOF (internal DOF index = DOF_Sg), m
          2   -2.196E-01                                 F               2         ED Platform horizontal sway translation DOF (internal DOF index = DOF_Sw), m
          3   -2.600E-01                                 F               2         ED Platform vertical heave translation DOF (internal DOF index = DOF_Hv), m
          4    5.133E-02                                 F               2         ED Platform roll tilt rotation DOF (internal DOF index = DOF_R), rad
          5    1.570E-01                                 F               2         ED Platform pitch tilt rotation DOF (internal DOF index = DOF_P), rad
          6    9.706E-03                                 F               2         ED Platform yaw rotation DOF (internal DOF index = DOF_Y), rad
          7    1.083E+00                                 F               2         ED 1st tower fore-aft bending mode DOF (internal DOF index = DOF_TFA1), m
          8    2.164E-01                                 F               2         ED 1st tower side-to-side bending mode DOF (internal DOF index = DOF_TSS1), m
          9    1.611E-03                                 F               2         ED 2nd tower fore-aft bending mode DOF (internal DOF index = DOF_TFA2), m
         10    9.420E-05                                 F               2         ED 2nd tower side-to-side bending mode DOF (internal DOF index = DOF_TSS2), m
         11    3.871E+00                                 F               2         ED Variable speed generator DOF (internal DOF index = DOF_GeAz), rad
         12   -9.855E-04                                 F               2         ED First time derivative of Platform horizontal surge translation DOF (internal DOF index = DOF_Sg), m/s
         13   -3.095E-04                                 F               2         ED First time derivative of Platform horizontal sway translation DOF (internal DOF index = DOF_Sw), m/s
         14    1.866E-03                                 F               2         ED First time derivative of Platform vertical heave translation DOF (internal DOF index = DOF_Hv), m/s
         15    1.318E-03                                 F               2         ED First time derivative of Platform roll tilt rotation DOF (internal DOF index = DOF_R), rad/s
         16   -8.578E-05                                 F               2         ED First time derivative of Platform pitch tilt rotation DOF (internal DOF index = DOF_P), rad/s
         17   -1.449E-04                                 F               2         ED First time derivative of Platform yaw rotation DOF (internal DOF index = DOF_Y), rad/s
         18   -1.655E-03                                 F               2         ED First time derivative of 1st tower fore-aft bending mode DOF (internal DOF index = DOF_TFA1), m/s
         19    7.476E-03                                 F               2         ED First time derivative of 1st tower side-to-side bending mode DOF (internal DOF index = DOF_TSS1), m/s
         20   -1.295E-05                                 F               2         ED First time derivative of 2nd tower fore-aft bending mode DOF (internal DOF index = DOF_TFA2), m/s
         21    3.353E-06                                 F               2         ED First time derivative of 2nd tower side-to-side bending mode DOF (internal DOF index = DOF_TSS2), m/s
         22    1.040E+00                                 F               2         ED First time derivative of Variable speed generator DOF (internal DOF index = DOF_GeAz), rad/s

Order of continuous state derivatives:
   Row/Column Operating Point                     Rotating Frame? Derivative Order Description
   ---------- ---------------                     --------------- ---------------- -----------
          1   -9.855E-04                                 F               2         First time derivative of ED Platform horizontal surge translation DOF (internal DOF index = DOF_Sg), m/s
          2   -3.095E-04                                 F               2         First time derivative of ED Platform horizontal sway translation DOF (internal DOF index = DOF_Sw), m/s
          3    1.866E-03                                 F               2         First time derivative of ED Platform vertical heave translation DOF (internal DOF index = DOF_Hv), m/s
          4    1.318E-03                                 F               2         First time derivative of ED Platform roll tilt rotation DOF (internal DOF index = DOF_R), rad/s
          5   -8.578E-05                                 F               2         First time derivative of ED Platform pitch tilt rotation DOF (internal DOF index = DOF_P), rad/s
          6   -1.449E-04                                 F               2         First time derivative of ED Platform yaw rotation DOF (internal DOF index = DOF_Y), rad/s
          7   -1.655E-03                                 F               2         First time derivative of ED 1st tower fore-aft bending mode DOF (internal DOF index = DOF_TFA1), m/s
          8    7.476E-03                                 F               2         First time derivative of ED 1st tower side-to-side bending mode DOF (internal DOF index = DOF_TSS1), m/s
          9   -1.295E-05                                 F               2         First time derivative of ED 2nd tower fore-aft bending mode DOF (internal DOF index = DOF_TFA2), m/s
         10    3.353E-06                                 F               2         First time derivative of ED 2nd tower side-to-side bending mode DOF (internal DOF index = DOF_TSS2), m/s
         11    1.040E+00                                 F               2         First time derivative of ED Variable speed generator DOF (internal DOF index = DOF_GeAz), rad/s
         12   -5.974E-05                                 F               2         First time derivative of ED First time derivative of Platform horizontal surge translation DOF (internal DOF index = DOF_Sg), m/s/s
         13    4.855E-04                                 F               2         First time derivative of ED First time derivative of Platform horizontal sway translation DOF (internal DOF index = DOF_Sw), m/s/s
         14    1.398E-03                                 F               2         First time derivative of ED First time derivative of Platform vertical heave translation DOF (internal DOF index = DOF_Hv), m/s/s
         15   -3.575E-04                                 F               2         First time derivative of ED First time derivative of Platform roll tilt rotation DOF (internal DOF index = DOF_R), rad/s/s
         16   -2.813E-05                                 F               2         First time derivative of ED First time derivative of Platform pitch tilt rotation DOF (internal DOF index = DOF_P), rad/s/s
         17    1.404E-04                                 F               2         First time derivative of ED First time derivative of Platform yaw rotation DOF (internal DOF index = DOF_Y), rad/s/s
         18    3.986E-03                                 F               2         First time derivative of ED First time derivative of 1st tower fore-aft bending mode DOF (internal DOF index = DOF_TFA1), m/s/s
         19   -2.145E-03                                 F               2         First time derivative of ED First time derivative of 1st tower side-to-side bending mode DOF (internal DOF index = DOF_TSS1), m/s/s
         20    1.587E-05                                 F               2         First time derivative of ED First time derivative of 2nd tower fore-aft bending mode DOF (internal DOF index = DOF_TFA2), m/s/s
         21   -1.809E-06                                 F               2         First time derivative of ED First time derivative of 2nd tower side-to-side bending mode DOF (internal DOF index = DOF_TSS2), m/s/s
         22    3.738E-04                                 F               2         First time derivative of ED First time derivative of Variable speed generator DOF (internal DOF index = DOF_GeAz), rad/s/s

Order of inputs:
     Column   Operating Point                     Rotating Frame? Derivative Order Description
   ---------- ---------------                     --------------- ---------------- -----------
          1   -1.080E+01                                 F               0         IfW X-component position of node 1 (hub), m
          2    0.000E+00                                 F               0         IfW Y-component position of node 1 (hub), m
          3    1.497E+02                                 F               0         IfW Z-component position of node 1 (hub), m
          4    2.702E+01                                 F               0         IfW X-component position of node 2 (blade 1, node 1), m
          5   -4.127E+00                                 F               0         IfW Y-component position of node 2 (blade 1, node 1), m
          6    1.529E+02                                 F               0         IfW Z-component position of node 2 (blade 1, node 1), m
          7    2.726E+01                                 F               0         IfW X-component position of node 3 (blade 1, node 2), m
          8   -3.178E+00                                 F               0         IfW Y-component position of node 3 (blade 1, node 2), m
          9    1.538E+02                                 F               0         IfW Z-component position of node 3 (blade 1, node 2), m
         10    3.045E+01                                 F               0         IfW X-component position of node 4 (blade 1, node 3), m
         11    9.725E+00                                 F               0         IfW Y-component position of node 4 (blade 1, node 3), m
         12    1.661E+02                                 F               0         IfW Z-component position of node 4 (blade 1, node 3), m
         13    3.113E+01                                 F               0         IfW X-component position of node 5 (blade 1, node 4), m
         14    1.247E+01                                 F               0         IfW Y-component position of node 5 (blade 1, node 4), m
         15    1.688E+02                                 F               0         IfW Z-component position of node 5 (blade 1, node 4), m
         16    3.181E+01                                 F               0         IfW X-component position of node 6 (blade 1, node 5), m
         17    1.522E+01                                 F               0         IfW Y-component position of node 6 (blade 1, node 5), m
         18    1.714E+02                                 F               0         IfW Z-component position of node 6 (blade 1, node 5), m
         19    3.250E+01                                 F               0         IfW X-component position of node 7 (blade 1, node 6), m
         20    1.797E+01                                 F               0         IfW Y-component position of node 7 (blade 1, node 6), m
         21    1.740E+02                                 F               0         IfW Z-component position of node 7 (blade 1, node 6), m
         22    3.318E+01                                 F               0         IfW X-component position of node 8 (blade 1, node 7), m
         23    2.072E+01                                 F               0         IfW Y-component position of node 8 (blade 1, node 7), m
         24    1.767E+02                                 F               0         IfW Z-component position of node 8 (blade 1, node 7), m
         25    3.386E+01                                 F               0         IfW X-component position of node 9 (blade 1, node 8), m
         26    2.347E+01                                 F               0         IfW Y-component position of node 9 (blade 1, node 8), m
         27    1.793E+02                                 F               0         IfW Z-component position of node 9 (blade 1, node 8), m
         28    3.454E+01                                 F               0         IfW X-component position of node 10 (blade 1, node 9), m
         29    2.622E+01                                 F               0         IfW Y-component position of node 10 (blade 1, node 9), m
         30    1.819E+02                                 F               0         IfW Z-component position of node 10 (blade 1, node 9), m
         31    3.522E+01                                 F               0         IfW X-component position of node 11 (blade 1, node 10), m
         32    2.897E+01                                 F               0         IfW Y-component position of node 11 (blade 1, node 10), m
         33    1.846E+02                                 F               0         IfW Z-component position of node 11 (blade 1, node 10), m
         34    3.590E+01                                 F               0         IfW X-component position of node 12 (blade 1, node 11), m
         35    3.172E+01                                 F               0         IfW Y-component position of node 12 (blade 1, node 11), m
         36    1.872E+02                                 F               0         IfW Z-component position of node 12 (blade 1, node 11), m
         37    3.658E+01                                 F               0         IfW X-component position of node 13 (blade 1, node 12), m
         38    3.447E+01                                 F               0         IfW Y-component position of node 13 (blade 1, node 12), m
         39    1.898E+02                                 F               0         IfW Z-component position of node 13 (blade 1, node 12), m
         40    3.726E+01                                 F               0         IfW X-component position of node 14 (blade 1, node 13), m
         41    3.722E+01                                 F               0         IfW Y-component position of node 14 (blade 1, node 13), m
         42    1.925E+02                                 F               0         IfW Z-component position of node 14 (blade 1, node 13), m
         43    3.794E+01                                 F               0         IfW X-component position of node 15 (blade 1, node 14), m
         44    3.996E+01                                 F               0         IfW Y-component position of node 15 (blade 1, node 14), m
         45    1.951E+02                                 F               0         IfW Z-component position of node 15 (blade 1, node 14), m
         46    3.862E+01                                 F               0         IfW X-component position of node 16 (blade 1, node 15), m
         47    4.271E+01                                 F               0         IfW Y-component position of node 16 (blade 1, node 15), m
         48    1.977E+02                                 F               0         IfW Z-component position of node 16 (blade 1, node 15), m
         49    3.930E+01                                 F               0         IfW X-component position of node 17 (blade 1, node 16), m
         50    4.546E+01                                 F               0         IfW Y-component position of node 17 (blade 1, node 16), m
         51    2.004E+02                                 F               0         IfW Z-component position of node 17 (blade 1, node 16), m
         52    3.998E+01                                 F               0         IfW X-component position of node 18 (blade 1, node 17), m
         53    4.821E+01                                 F               0         IfW Y-component position of node 18 (blade 1, node 17), m
         54    2.030E+02                                 F               0         IfW Z-component position of node 18 (blade 1, node 17), m
         55    4.066E+01                                 F               0         IfW X-component position of node 19 (blade 1, node 18), m
         56    5.096E+01                                 F               0         IfW Y-component position of node 19 (blade 1, node 18), m
         57    2.056E+02                                 F               0         IfW Z-component position of node 19 (blade 1, node 18), m
         58    4.135E+01                                 F               0         IfW X-component position of node 20 (blade 1, node 19), m
         59    5.371E+01                                 F               0         IfW Y-component position of node 20 (blade 1, node 19), m
         60    2.083E+02                                 F               0         IfW Z-component position of node 20 (blade 1, node 19), m
         61    4.203E+01                                 F               0         IfW X-component position of node 21 (blade 1, node 20), m
         62    5.646E+01                                 F               0         IfW Y-component position of node 21 (blade 1, node 20), m
         63    2.109E+02                                 F               0         IfW Z-component position of node 21 (blade 1, node 20), m
         64    4.271E+01                                 F               0         IfW X-component position of node 22 (blade 1, node 21), m
         65    5.921E+01                                 F               0         IfW Y-component position of node 22 (blade 1, node 21), m
         66    2.135E+02                                 F               0         IfW Z-component position of node 22 (blade 1, node 21), m
         67    4.339E+01                                 F               0         IfW X-component position of node 23 (blade 1, node 22), m
         68    6.196E+01                                 F               0         IfW Y-component position of node 23 (blade 1, node 22), m
         69    2.162E+02                                 F               0         IfW Z-component position of node 23 (blade 1, node 22), m
         70    4.407E+01                                 F               0         IfW X-component position of node 24 (blade 1, node 23), m
         71    6.471E+01                                 F               0         IfW Y-component position of node 24 (blade 1, node 23), m
         72    2.188E+02                                 F               0         IfW Z-component position of node 24 (blade 1, node 23), m
         73    4.475E+01                                 F               0         IfW X-component position of node 25 (blade 1, node 24), m
         74    6.746E+01                                 F               0         IfW Y-component position of node 25 (blade 1, node 24), m
         75    2.214E+02                                 F               0         IfW Z-component position of node 25 (blade 1, node 24), m
         76    4.543E+01                                 F               0         IfW X-component position of node 26 (blade 1, node 25), m
         77    7.020E+01                                 F               0         IfW Y-component position of node 26 (blade 1, node 25), m
         78    2.241E+02                                 F               0         IfW Z-component position of node 26 (blade 1, node 25), m
         79    4.611E+01                                 F               0         IfW X-component position of node 27 (blade 1, node 26), m
         80    7.295E+01                                 F               0         IfW Y-component position of node 27 (blade 1, node 26), m
         81    2.267E+02                                 F               0         IfW Z-component position of node 27 (blade 1, node 26), m
         82    4.679E+01                                 F               0         IfW X-component position of node 28 (blade 1, node 27), m
         83    7.570E+01                                 F               0         IfW Y-component position of node 28 (blade 1, node 27), m
         84    2.293E+02                                 F               0         IfW Z-component position of node 28 (blade 1, node 27), m
         85    4.737E+01                                 F               0         IfW X-component position of node 29 (blade 1, node 28), m
         86    7.803E+01                                 F               0         IfW Y-component position of node 29 (blade 1, node 28), m
         87    2.316E+02                                 F               0         IfW Z-component position of node 29 (blade 1, node 28), m
         88    2.654E+01                                 F               0         IfW X-component position of node 30 (blade 2, node 1), m
         89   -1.341E+01                                 F               0         IfW Y-component position of node 30 (blade 2, node 1), m
         90    1.505E+02                                 F               0         IfW Z-component position of node 30 (blade 2, node 1), m
         91    2.666E+01                                 F               0         IfW X-component position of node 31 (blade 2, node 2), m
         92   -1.469E+01                                 F               0         IfW Y-component position of node 31 (blade 2, node 2), m
         93    1.508E+02                                 F               0         IfW Z-component position of node 31 (blade 2, node 2), m
         94    2.828E+01                                 F               0         IfW X-component position of node 32 (blade 2, node 3), m
         95   -3.220E+01                                 F               0         IfW Y-component position of node 32 (blade 2, node 3), m
         96    1.553E+02                                 F               0         IfW Z-component position of node 32 (blade 2, node 3), m
         97    2.863E+01                                 F               0         IfW X-component position of node 33 (blade 2, node 4), m
         98   -3.593E+01                                 F               0         IfW Y-component position of node 33 (blade 2, node 4), m
         99    1.563E+02                                 F               0         IfW Z-component position of node 33 (blade 2, node 4), m
        100    2.897E+01                                 F               0         IfW X-component position of node 34 (blade 2, node 5), m
        101   -3.966E+01                                 F               0         IfW Y-component position of node 34 (blade 2, node 5), m
        102    1.572E+02                                 F               0         IfW Z-component position of node 34 (blade 2, node 5), m
        103    2.932E+01                                 F               0         IfW X-component position of node 35 (blade 2, node 6), m
        104   -4.339E+01                                 F               0         IfW Y-component position of node 35 (blade 2, node 6), m
        105    1.582E+02                                 F               0         IfW Z-component position of node 35 (blade 2, node 6), m
        106    2.966E+01                                 F               0         IfW X-component position of node 36 (blade 2, node 7), m
        107   -4.712E+01                                 F               0         IfW Y-component position of node 36 (blade 2, node 7), m
        108    1.592E+02                                 F               0         IfW Z-component position of node 36 (blade 2, node 7), m
        109    3.001E+01                                 F               0         IfW X-component position of node 37 (blade 2, node 8), m
        110   -5.085E+01                                 F               0         IfW Y-component position of node 37 (blade 2, node 8), m
        111    1.601E+02                                 F               0         IfW Z-component position of node 37 (blade 2, node 8), m
        112    3.035E+01                                 F               0         IfW X-component position of node 38 (blade 2, node 9), m
        113   -5.458E+01                                 F               0         IfW Y-component position of node 38 (blade 2, node 9), m
        114    1.611E+02                                 F               0         IfW Z-component position of node 38 (blade 2, node 9), m
        115    3.070E+01                                 F               0         IfW X-component position of node 39 (blade 2, node 10), m
        116   -5.831E+01                                 F               0         IfW Y-component position of node 39 (blade 2, node 10), m
        117    1.621E+02                                 F               0         IfW Z-component position of node 39 (blade 2, node 10), m
        118    3.105E+01                                 F               0         IfW X-component position of node 40 (blade 2, node 11), m
        119   -6.204E+01                                 F               0         IfW Y-component position of node 40 (blade 2, node 11), m
        120    1.630E+02                                 F               0         IfW Z-component position of node 40 (blade 2, node 11), m
        121    3.139E+01                                 F               0         IfW X-component position of node 41 (blade 2, node 12), m
        122   -6.577E+01                                 F               0         IfW Y-component position of node 41 (blade 2, node 12), m
        123    1.640E+02                                 F               0         IfW Z-component position of node 41 (blade 2, node 12), m
        124    3.174E+01                                 F               0         IfW X-component position of node 42 (blade 2, node 13), m
        125   -6.950E+01                                 F               0         IfW Y-component position of node 42 (blade 2, node 13), m
        126    1.650E+02                                 F               0         IfW Z-component position of node 42 (blade 2, node 13), m
        127    3.208E+01                                 F               0         IfW X-component position of node 43 (blade 2, node 14), m
        128   -7.323E+01                                 F               0         IfW Y-component position of node 43 (blade 2, node 14), m
        129    1.659E+02                                 F               0         IfW Z-component position of node 43 (blade 2, node 14), m
        130    3.243E+01                                 F               0         IfW X-component position of node 44 (blade 2, node 15), m
        131   -7.696E+01                                 F               0         IfW Y-component position of node 44 (blade 2, node 15), m
        132    1.669E+02                                 F               0         IfW Z-component position of node 44 (blade 2, node 15), m
        133    3.277E+01                                 F               0         IfW X-component position of node 45 (blade 2, node 16), m
        134   -8.069E+01                                 F               0         IfW Y-component position of node 45 (blade 2, node 16), m
        135    1.679E+02                                 F               0         IfW Z-component position of node 45 (blade 2, node 16), m
        136    3.312E+01                                 F               0         IfW X-component position of node 46 (blade 2, node 17), m
        137   -8.442E+01                                 F               0         IfW Y-component position of node 46 (blade 2, node 17), m
        138    1.688E+02                                 F               0         IfW Z-component position of node 46 (blade 2, node 17), m
        139    3.346E+01                                 F               0         IfW X-component position of node 47 (blade 2, node 18), m
        140   -8.814E+01                                 F               0         IfW Y-component position of node 47 (blade 2, node 18), m
        141    1.698E+02                                 F               0         IfW Z-component position of node 47 (blade 2, node 18), m
        142    3.381E+01                                 F               0         IfW X-component position of node 48 (blade 2, node 19), m
        143   -9.187E+01                                 F               0         IfW Y-component position of node 48 (blade 2, node 19), m
        144    1.707E+02                                 F               0         IfW Z-component position of node 48 (blade 2, node 19), m