
Linearized model: Predictions were generated on 12-Jan-2024 at 09:28:28 using OpenFAST, compiled as a 64-bit application using single precision at commit v3.5.1
 linked with  NWTC Subroutine Library; ElastoDyn; InflowWind; AeroDyn; ServoDyn; HydroDyn; MAP++ (<1.20.10>, <Oct-20-2023>)

Description from the FAST input file: CCT-9 Campign 4 model. Input files to be run with OpenFAST 3.5.0. GitHub branch from Lu Wang (https://github.com/luwang00/openfast/tree/dev) compiled on March 7, 2023.

Simulation information:
   Simulation time:                   508.1500 s
   Rotor Speed:                         0.8781 rad/s
   Azimuth:                             4.7235 rad
   Wind Speed:                         10.0000 m/s
   Number of continuous states:         0
   Number of discrete states:           0
   Number of constraint states:         0
   Number of inputs:                 1746
   Number of outputs:                   4
   Jacobians included in this file?    No

Order of inputs:
     Column   Operating Point                     Rotating Frame? Derivative Order Description
   ---------- ---------------                     --------------- ---------------- -----------
          1    1.098E+01                                 F               0         Tower X translation displacement, node 1, m
          2   -1.206E+00                                 F               0         Tower Y translation displacement, node 1, m
          3   -3.057E-01                                 F               0         Tower Z translation displacement, node 1, m
          4    1.245E+01                                 F               0         Tower X translation displacement, node 2, m
          5   -1.780E+00                                 F               0         Tower Y translation displacement, node 2, m
          6   -4.066E-01                                 F               0         Tower Z translation displacement, node 2, m
          7    1.394E+01                                 F               0         Tower X translation displacement, node 3, m
          8   -2.359E+00                                 F               0         Tower Y translation displacement, node 3, m
          9   -5.108E-01                                 F               0         Tower Z translation displacement, node 3, m
         10    1.545E+01                                 F               0         Tower X translation displacement, node 4, m
         11   -2.942E+00                                 F               0         Tower Y translation displacement, node 4, m
         12   -6.174E-01                                 F               0         Tower Z translation displacement, node 4, m
         13    1.698E+01                                 F               0         Tower X translation displacement, node 5, m
         14   -3.530E+00                                 F               0         Tower Y translation displacement, node 5, m
         15   -7.261E-01                                 F               0         Tower Z translation displacement, node 5, m
         16    1.852E+01                                 F               0         Tower X translation displacement, node 6, m
         17   -4.120E+00                                 F               0         Tower Y translation displacement, node 6, m
         18   -8.365E-01                                 F               0         Tower Z translation displacement, node 6, m
         19    2.007E+01                                 F               0         Tower X translation displacement, node 7, m
         20   -4.713E+00                                 F               0         Tower Y translation displacement, node 7, m
         21   -9.482E-01                                 F               0         Tower Z translation displacement, node 7, m
         22    2.162E+01                                 F               0         Tower X translation displacement, node 8, m
         23   -5.308E+00                                 F               0         Tower Y translation displacement, node 8, m
         24   -1.061E+00                                 F               0         Tower Z translation displacement, node 8, m
         25    2.318E+01                                 F               0         Tower X translation displacement, node 9, m
         26   -5.905E+00                                 F               0         Tower Y translation displacement, node 9, m
         27   -1.174E+00                                 F               0         Tower Z translation displacement, node 9, m
         28    2.475E+01                                 F               0         Tower X translation displacement, node 10, m
         29   -6.503E+00                                 F               0         Tower Y translation displacement, node 10, m
         30   -1.288E+00                                 F               0         Tower Z translation displacement, node 10, m
         31    2.631E+01                                 F               0         Tower X translation displacement, node 11, m
         32   -7.101E+00                                 F               0         Tower Y translation displacement, node 11, m
         33   -1.403E+00                                 F               0         Tower Z translation displacement, node 11, m
         34    9.930E-01,  1.026E-02, -1.176E-01         F               0         Tower X orientation angle, node 1, rad
         35   -4.740E-03,  9.989E-01,  4.714E-02         F               0         Tower Y orientation angle, node 1, rad
         36    1.180E-01, -4.626E-02,  9.919E-01         F               0         Tower Z orientation angle, node 1, rad
         37    9.928E-01,  1.035E-02, -1.195E-01         F               0         Tower X orientation angle, node 2, rad
         38   -4.688E-03,  9.989E-01,  4.758E-02         F               0         Tower Y orientation angle, node 2, rad
         39    1.199E-01, -4.667E-02,  9.917E-01         F               0         Tower Z orientation angle, node 2, rad
         40    9.926E-01,  1.043E-02, -1.211E-01         F               0         Tower X orientation angle, node 3, rad
         41   -4.640E-03,  9.988E-01,  4.797E-02         F               0         Tower Y orientation angle, node 3, rad
         42    1.215E-01, -4.705E-02,  9.915E-01         F               0         Tower Z orientation angle, node 3, rad
         43    9.924E-01,  1.049E-02, -1.225E-01         F               0         Tower X orientation angle, node 4, rad
         44   -4.598E-03,  9.988E-01,  4.831E-02         F               0         Tower Y orientation angle, node 4, rad
         45    1.229E-01, -4.738E-02,  9.913E-01         F               0         Tower Z orientation angle, node 4, rad
         46    9.923E-01,  1.055E-02, -1.237E-01         F               0         Tower X orientation angle, node 5, rad
         47   -4.562E-03,  9.988E-01,  4.860E-02         F               0         Tower Y orientation angle, node 5, rad
         48    1.240E-01, -4.766E-02,  9.911E-01         F               0         Tower Z orientation angle, node 5, rad
         49    9.922E-01,  1.059E-02, -1.246E-01         F               0         Tower X orientation angle, node 6, rad
         50   -4.531E-03,  9.988E-01,  4.885E-02         F               0         Tower Y orientation angle, node 6, rad
         51    1.249E-01, -4.790E-02,  9.910E-01         F               0         Tower Z orientation angle, node 6, rad
         52    9.921E-01,  1.063E-02, -1.252E-01         F               0         Tower X orientation angle, node 7, rad
         53   -4.507E-03,  9.988E-01,  4.904E-02         F               0         Tower Y orientation angle, node 7, rad
         54    1.256E-01, -4.809E-02,  9.909E-01         F               0         Tower Z orientation angle, node 7, rad
         55    9.920E-01,  1.065E-02, -1.257E-01         F               0         Tower X orientation angle, node 8, rad
         56   -4.487E-03,  9.988E-01,  4.919E-02         F               0         Tower Y orientation angle, node 8, rad
         57    1.261E-01, -4.824E-02,  9.908E-01         F               0         Tower Z orientation angle, node 8, rad
         58    9.920E-01,  1.067E-02, -1.261E-01         F               0         Tower X orientation angle, node 9, rad
         59   -4.473E-03,  9.988E-01,  4.931E-02         F               0         Tower Y orientation angle, node 9, rad
         60    1.265E-01, -4.834E-02,  9.908E-01         F               0         Tower Z orientation angle, node 9, rad
         61    9.919E-01,  1.068E-02, -1.263E-01         F               0         Tower X orientation angle, node 10, rad
         62   -4.464E-03,  9.988E-01,  4.938E-02         F               0         Tower Y orientation angle, node 10, rad
         63    1.267E-01, -4.842E-02,  9.908E-01         F               0         Tower Z orientation angle, node 10, rad
         64    9.919E-01,  1.068E-02, -1.264E-01         F               0         Tower X orientation angle, node 11, rad
         65   -4.459E-03,  9.988E-01,  4.942E-02         F               0         Tower Y orientation angle, node 11, rad
         66    1.268E-01, -4.846E-02,  9.907E-01         F               0         Tower Z orientation angle, node 11, rad
         67   -4.666E-03                                 F               0         Tower X translation velocity, node 1, m/s
         68    9.225E-03                                 F               0         Tower Y translation velocity, node 1, m/s
         69    4.549E-03                                 F               0         Tower Z translation velocity, node 1, m/s
         70   -4.686E-03                                 F               0         Tower X translation velocity, node 2, m/s
         71    1.505E-02                                 F               0         Tower Y translation velocity, node 2, m/s
         72    4.824E-03                                 F               0         Tower Z translation velocity, node 2, m/s
         73   -4.750E-03                                 F               0         Tower X translation velocity, node 3, m/s
         74    2.088E-02                                 F               0         Tower Y translation velocity, node 3, m/s
         75    5.108E-03                                 F               0         Tower Z translation velocity, node 3, m/s
         76   -4.847E-03                                 F               0         Tower X translation velocity, node 4, m/s
         77    2.671E-02                                 F               0         Tower Y translation velocity, node 4, m/s
         78    5.397E-03                                 F               0         Tower Z translation velocity, node 4, m/s
         79   -4.975E-03                                 F               0         Tower X translation velocity, node 5, m/s
         80    3.254E-02                                 F               0         Tower Y translation velocity, node 5, m/s
         81    5.693E-03                                 F               0         Tower Z translation velocity, node 5, m/s
         82   -5.128E-03                                 F               0         Tower X translation velocity, node 6, m/s
         83    3.837E-02                                 F               0         Tower Y translation velocity, node 6, m/s
         84    5.993E-03                                 F               0         Tower Z translation velocity, node 6, m/s
         85   -5.302E-03                                 F               0         Tower X translation velocity, node 7, m/s
         86    4.420E-02                                 F               0         Tower Y translation velocity, node 7, m/s
         87    6.298E-03                                 F               0         Tower Z translation velocity, node 7, m/s
         88   -5.493E-03                                 F               0         Tower X translation velocity, node 8, m/s
         89    5.003E-02                                 F               0         Tower Y translation velocity, node 8, m/s
         90    6.605E-03                                 F               0         Tower Z translation velocity, node 8, m/s
         91   -5.698E-03                                 F               0         Tower X translation velocity, node 9, m/s
         92    5.586E-02                                 F               0         Tower Y translation velocity, node 9, m/s
         93    6.916E-03                                 F               0         Tower Z translation velocity, node 9, m/s
         94   -5.913E-03                                 F               0         Tower X translation velocity, node 10, m/s
         95    6.169E-02                                 F               0         Tower Y translation velocity, node 10, m/s
         96    7.228E-03                                 F               0         Tower Z translation velocity, node 10, m/s
         97   -6.133E-03                                 F               0         Tower X translation velocity, node 11, m/s
         98    6.752E-02                                 F               0         Tower Y translation velocity, node 11, m/s
         99    7.541E-03                                 F               0         Tower Z translation velocity, node 11, m/s
        100    2.739E+01                                 F               0         Hub X translation displacement, node 1, m
        101   -7.597E+00                                 F               0         Hub Y translation displacement, node 1, m
        102   -1.101E-01                                 F               0         Hub Z translation displacement, node 1, m
        103    9.732E-01,  1.569E-02, -2.293E-01         F               0         Hub X orientation angle, node 1, rad
        104   -2.298E-01,  5.814E-02, -9.715E-01         F               0         Hub Y orientation angle, node 1, rad
        105   -1.913E-03,  9.982E-01,  6.019E-02         F               0         Hub Z orientation angle, node 1, rad
        106    8.541E-01                                 F               0         Hub X rotation velocity, node 1, rad/s
        107    1.375E-02                                 F               0         Hub Y rotation velocity, node 1, rad/s
        108   -2.012E-01                                 F               0         Hub Z rotation velocity, node 1, rad/s
        109    9.796E-01,  1.396E-02, -2.003E-01         F               0         Blade root 1 X orientation angle, node 1, rad
        110   -2.008E-01,  5.858E-02, -9.779E-01         F               0         Blade root 1 Y orientation angle, node 1, rad
        111   -1.913E-03,  9.982E-01,  6.019E-02         F               0         Blade root 1 Z orientation angle, node 1, rad
        112    9.694E-01, -9.101E-03, -2.451E-01         F               0         Blade root 2 X orientation angle, node 1, rad
        113    1.421E-01,  8.355E-01,  5.308E-01         F               0         Blade root 2 Y orientation angle, node 1, rad
        114    2.000E-01, -5.494E-01,  8.113E-01         F               0         Blade root 2 Z orientation angle, node 1, rad
        115    9.694E-01,  4.219E-02, -2.420E-01         F               0         Blade root 3 X orientation angle, node 1, rad
        116    1.454E-01, -8.927E-01,  4.266E-01         F               0         Blade root 3 Y orientation angle, node 1, rad
        117   -1.981E-01, -4.487E-01, -8.714E-01         F               0         Blade root 3 Z orientation angle, node 1, rad
        118    2.680E+01                                 F               0         Blade 1 X translation displacement, node 1, m
        119   -2.067E+00                                 F               0         Blade 1 Y translation displacement, node 1, m
        120   -5.286E+00                                 F               0         Blade 1 Z translation displacement, node 1, m
        121    2.666E+01                                 F               0         Blade 1 X translation displacement, node 2, m
        122   -7.347E-01                                 F               0         Blade 1 Y translation displacement, node 2, m
        123   -6.534E+00                                 F               0         Blade 1 Z translation displacement, node 2, m
        124    2.473E+01                                 F               0         Blade 1 X translation displacement, node 3, m
        125    1.738E+01                                 F               0         Blade 1 Y translation displacement, node 3, m
        126   -2.349E+01                                 F               0         Blade 1 Z translation displacement, node 3, m
        127    2.432E+01                                 F               0         Blade 1 X translation displacement, node 4, m
        128    2.125E+01                                 F               0         Blade 1 Y translation displacement, node 4, m
        129   -2.711E+01                                 F               0         Blade 1 Z translation displacement, node 4, m
        130    2.391E+01                                 F               0         Blade 1 X translation displacement, node 5, m
        131    2.511E+01                                 F               0         Blade 1 Y translation displacement, node 5, m
        132   -3.072E+01                                 F               0         Blade 1 Z translation displacement, node 5, m
        133    2.350E+01                                 F               0         Blade 1 X translation displacement, node 6, m
        134    2.897E+01                                 F               0         Blade 1 Y translation displacement, node 6, m
        135   -3.434E+01                                 F               0         Blade 1 Z translation displacement, node 6, m
        136    2.308E+01                                 F               0         Blade 1 X translation displacement, node 7, m
        137    3.283E+01                                 F               0         Blade 1 Y translation displacement, node 7, m
        138   -3.795E+01                                 F               0         Blade 1 Z translation displacement, node 7, m
        139    2.267E+01                                 F               0         Blade 1 X translation displacement, node 8, m
        140    3.669E+01                                 F               0         Blade 1 Y translation displacement, node 8, m
        141   -4.156E+01                                 F               0         Blade 1 Z translation displacement, node 8, m
        142    2.226E+01                                 F               0         Blade 1 X translation displacement, node 9, m
        143    4.055E+01                                 F               0         Blade 1 Y translation displacement, node 9, m
        144   -4.518E+01                                 F               0         Blade 1 Z translation displacement, node 9, m
        145    2.185E+01                                 F               0         Blade 1 X translation displacement, node 10, m
        146    4.441E+01                                 F               0         Blade 1 Y translation displacement, node 10, m
        147   -4.879E+01                                 F               0         Blade 1 Z translation displacement, node 10, m
        148    2.144E+01                                 F               0         Blade 1 X translation displacement, node 11, m
        149    4.827E+01                                 F               0         Blade 1 Y translation displacement, node 11, m
        150   -5.240E+01                                 F               0         Blade 1 Z translation displacement, node 11, m
        151    2.103E+01                                 F               0         Blade 1 X translation displacement, node 12, m
        152    5.213E+01                                 F               0         Blade 1 Y translation displacement, node 12, m
        153   -5.602E+01                                 F               0         Blade 1 Z translation displacement, node 12, m
        154    2.061E+01                                 F               0         Blade 1 X translation displacement, node 13, m
        155    5.599E+01                                 F               0         Blade 1 Y translation displacement, node 13, m
        156   -5.963E+01                                 F               0         Blade 1 Z translation displacement, node 13, m
        157    2.020E+01                                 F               0         Blade 1 X translation displacement, node 14, m
        158    5.985E+01                                 F               0         Blade 1 Y translation displacement, node 14, m
        159   -6.324E+01                                 F               0         Blade 1 Z translation displacement, node 14, m
        160    1.979E+01                                 F               0         Blade 1 X translation displacement, node 15, m
        161    6.371E+01                                 F               0         Blade 1 Y translation displacement, node 15, m
        162   -6.686E+01                                 F               0         Blade 1 Z translation displacement, node 15, m
        163    1.938E+01                                 F               0         Blade 1 X translation displacement, node 16, m
        164    6.757E+01                                 F               0         Blade 1 Y translation displacement, node 16, m
        165   -7.047E+01                                 F               0         Blade 1 Z translation displacement, node 16, m
        166    1.897E+01                                 F               0         Blade 1 X translation displacement, node 17, m
        167    7.143E+01                                 F               0         Blade 1 Y translation displacement, node 17, m
        168   -7.409E+01                                 F               0         Blade 1 Z translation displacement, node 17, m
        169    1.856E+01                                 F               0         Blade 1 X translation displacement, node 18, m
        170    7.529E+01                                 F               0         Blade 1 Y translation displacement, node 18, m
        171   -7.770E+01                                 F               0         Blade 1 Z translation displacement, node 18, m
        172    1.814E+01                                 F               0         Blade 1 X translation displacement, node 19, m
        173    7.916E+01                                 F               0         Blade 1 Y translation displacement, node 19, m
        174   -8.131E+01                                 F               0         Blade 1 Z translation displacement, node 19, m
        175    1.773E+01                                 F               0         Blade 1 X translation displacement, node 20, m
        176    8.302E+01                                 F               0         Blade 1 Y translation displacement, node 20, m
        177   -8.493E+01                                 F               0         Blade 1 Z translation displacement, node 20, m
        178    1.732E+01                                 F               0         Blade 1 X translation displacement, node 21, m
        179    8.688E+01                                 F               0         Blade 1 Y translation displacement, node 21, m
        180   -8.854E+01                                 F               0         Blade 1 Z translation displacement, node 21, m
        181    1.691E+01                                 F               0         Blade 1 X translation displacement, node 22, m
        182    9.074E+01                                 F               0         Blade 1 Y translation displacement, node 22, m
        183   -9.216E+01                                 F               0         Blade 1 Z translation displacement, node 22, m
        184    1.650E+01                                 F               0         Blade 1 X translation displacement, node 23, m
        185    9.460E+01                                 F               0         Blade 1 Y translation displacement, node 23, m
        186   -9.577E+01                                 F               0         Blade 1 Z translation displacement, node 23, m
        187    1.609E+01                                 F               0         Blade 1 X translation displacement, node 24, m
        188    9.846E+01                                 F               0         Blade 1 Y translation displacement, node 24, m
        189   -9.938E+01                                 F               0         Blade 1 Z translation displacement, node 24, m
        190    1.567E+01                                 F               0         Blade 1 X translation displacement, node 25, m
        191    1.023E+02                                 F               0         Blade 1 Y translation displacement, node 25, m
        192   -1.030E+02                                 F               0         Blade 1 Z translation displacement, node 25, m
        193    1.526E+01                                 F               0         Blade 1 X translation displacement, node 26, m
        194    1.062E+02                                 F               0         Blade 1 Y translation displacement, node 26, m
        195   -1.066E+02                                 F               0         Blade 1 Z translation displacement, node 26, m
        196    1.485E+01                                 F               0         Blade 1 X translation displacement, node 27, m
        197    1.100E+02                                 F               0         Blade 1 Y translation displacement, node 27, m
        198   -1.102E+02                                 F               0         Blade 1 Z translation displacement, node 27, m
        199    1.450E+01                                 F               0         Blade 1 X translation displacement, node 28, m
        200    1.133E+02                                 F               0         Blade 1 Y translation displacement, node 28, m
        201   -1.133E+02                                 F               0         Blade 1 Z translation displacement, node 28, m
        202    9.634E-01, -1.429E-02,  2.676E-01         F               0         Blade 1 X orientation angle, node 1, rad
        203    2.680E-01,  5.850E-02, -9.616E-01         F               0         Blade 1 Y orientation angle, node 1, rad
        204   -1.913E-03,  9.982E-01,  6.019E-02         F               0         Blade 1 Z orientation angle, node 1, rad
        205    9.634E-01, -1.429E-02,  2.676E-01         F               0         Blade 1 X orientation angle, node 2, rad
        206    2.680E-01,  5.850E-02, -9.616E-01         F               0         Blade 1 Y orientation angle, node 2, rad
        207   -1.913E-03,  9.982E-01,  6.019E-02         F               0         Blade 1 Z orientation angle, node 2, rad
        208    9.995E-01, -1.882E-05,  3.208E-02         F               0         Blade 1 X orientation angle, node 3, rad
        209    3.202E-02,  6.022E-02, -9.977E-01         F               0         Blade 1 Y orientation angle, node 3, rad
        210   -1.913E-03,  9.982E-01,  6.019E-02         F               0         Blade 1 Z orientation angle, node 3, rad
        211    9.999E-01,  2.524E-03, -1.008E-02         F               0         Blade 1 X orientation angle, node 4, rad
        212   -1.021E-02,  6.016E-02, -9.981E-01         F               0         Blade 1 Y orientation angle, node 4, rad
        213   -1.913E-03,  9.982E-01,  6.019E-02         F               0         Blade 1 Z orientation angle, node 4, rad
        214    9.991E-01,  4.517E-03, -4.316E-02         F               0         Blade 1 X orientation angle, node 5, rad
        215   -4.336E-02,  6.005E-02, -9.973E-01         F               0         Blade 1 Y orientation angle, node 5, rad
        216   -1.913E-03,  9.982E-01,  6.019E-02         F               0         Blade 1 Z orientation angle, node 5, rad
        217    9.976E-01,  6.108E-03, -6.960E-02         F               0         Blade 1 X orientation angle, node 6, rad
        218   -6.984E-02,  5.991E-02, -9.958E-01         F               0         Blade 1 Y orientation angle, node 6, rad
        219   -1.913E-03,  9.982E-01,  6.019E-02         F               0         Blade 1 Z orientation angle, node 6, rad
        220    9.958E-01,  7.414E-03, -9.131E-02         F               0         Blade 1 X orientation angle, node 7, rad
        221   -9.159E-02,  5.976E-02, -9.940E-01         F               0         Blade 1 Y orientation angle, node 7, rad
        222   -1.913E-03,  9.982E-01,  6.019E-02         F               0         Blade 1 Z orientation angle, node 7, rad
        223    9.940E-01,  8.497E-03, -1.093E-01         F               0         Blade 1 X orientation angle, node 8, rad
        224   -1.096E-01,  5.961E-02, -9.922E-01         F               0         Blade 1 Y orientation angle, node 8, rad
        225   -1.913E-03,  9.982E-01,  6.019E-02         F               0         Blade 1 Z orientation angle, node 8, rad
        226    9.922E-01,  9.412E-03, -1.246E-01         F               0         Blade 1 X orientation angle, node 9, rad
        227   -1.249E-01,  5.948E-02, -9.904E-01         F               0         Blade 1 Y orientation angle, node 9, rad