
Linearized model: Predictions were generated on 13-Feb-2024 at 12:12:09 using OpenFAST, compiled as a 64-bit application using single precision at commit v3.5.1
 linked with  NWTC Subroutine Library; ElastoDyn; InflowWind; AeroDyn; ServoDyn; HydroDyn; MAP++ (<1.20.10>, <Oct-20-2023>)

Description from the FAST input file: CCT-9 Campign 4 model. Input files to be run with OpenFAST 3.5.0. GitHub branch from Lu Wang (https://github.com/luwang00/openfast/tree/dev) compiled on March 7, 2023.

Simulation information:
   Simulation time:                   773.1000 s
   Rotor Speed:                         0.7915 rad/s
   Azimuth:                             2.1097 rad
   Wind Speed:                         24.0000 m/s
   Number of continuous states:        22
   Number of discrete states:           0
   Number of constraint states:         0
   Number of inputs:                 1890
   Number of outputs:                  25
   Jacobians included in this file?    No

Order of continuous states:
   Row/Column Operating Point                                                   Rotating Frame? Derivative Order Description
   ---------- ---------------                                                   --------------- ---------------- -----------
          1     6.82263326645E+000                                                     F               2         Platform horizontal surge translation DOF (internal DOF index = DOF_Sg), m
          2    -8.26043367386E-001                                                     F               2         Platform horizontal sway translation DOF (internal DOF index = DOF_Sw), m
          3    -1.04945860803E-001                                                     F               2         Platform vertical heave translation DOF (internal DOF index = DOF_Hv), m
          4     5.43461628258E-002                                                     F               2         Platform roll tilt rotation DOF (internal DOF index = DOF_R), rad
          5     9.51677560806E-002                                                     F               2         Platform pitch tilt rotation DOF (internal DOF index = DOF_P), rad
          6    -9.31833963841E-003                                                     F               2         Platform yaw rotation DOF (internal DOF index = DOF_Y), rad
          7     5.58989346027E-001                                                     F               2         1st tower fore-aft bending mode DOF (internal DOF index = DOF_TFA1), m
          8     2.78329670429E-001                                                     F               2         1st tower side-to-side bending mode DOF (internal DOF index = DOF_TSS1), m
          9     1.48286018521E-003                                                     F               2         2nd tower fore-aft bending mode DOF (internal DOF index = DOF_TFA2), m
         10    -3.03617358441E-004                                                     F               2         2nd tower side-to-side bending mode DOF (internal DOF index = DOF_TSS2), m
         11     5.38865566254E-001                                                     F               2         Variable speed generator DOF (internal DOF index = DOF_GeAz), rad
         12    -4.14683111012E-003                                                     F               2         First time derivative of Platform horizontal surge translation DOF (internal DOF index = DOF_Sg), m/s
         13     6.16794102825E-004                                                     F               2         First time derivative of Platform horizontal sway translation DOF (internal DOF index = DOF_Sw), m/s
         14    -3.23564541759E-004                                                     F               2         First time derivative of Platform vertical heave translation DOF (internal DOF index = DOF_Hv), m/s
         15     5.17581781878E-008                                                     F               2         First time derivative of Platform roll tilt rotation DOF (internal DOF index = DOF_R), rad/s
         16    -2.20980655286E-004                                                     F               2         First time derivative of Platform pitch tilt rotation DOF (internal DOF index = DOF_P), rad/s
         17    -1.71697120095E-005                                                     F               2         First time derivative of Platform yaw rotation DOF (internal DOF index = DOF_Y), rad/s
         18     4.85748052597E-002                                                     F               2         First time derivative of 1st tower fore-aft bending mode DOF (internal DOF index = DOF_TFA1), m/s
         19    -3.74587345868E-003                                                     F               2         First time derivative of 1st tower side-to-side bending mode DOF (internal DOF index = DOF_TSS1), m/s
         20    -1.51657179231E-004                                                     F               2         First time derivative of 2nd tower fore-aft bending mode DOF (internal DOF index = DOF_TFA2), m/s
         21    -7.54953498472E-006                                                     F               2         First time derivative of 2nd tower side-to-side bending mode DOF (internal DOF index = DOF_TSS2), m/s
         22     7.91540086269E-001                                                     F               2         First time derivative of Variable speed generator DOF (internal DOF index = DOF_GeAz), rad/s

Order of continuous state derivatives:
   Row/Column Operating Point                                                   Rotating Frame? Derivative Order Description
   ---------- ---------------                                                   --------------- ---------------- -----------
          1    -4.14683111012E-003                                                     F               2         First time derivative of Platform horizontal surge translation DOF (internal DOF index = DOF_Sg), m/s
          2     6.16794102825E-004                                                     F               2         First time derivative of Platform horizontal sway translation DOF (internal DOF index = DOF_Sw), m/s
          3    -3.23564541759E-004                                                     F               2         First time derivative of Platform vertical heave translation DOF (internal DOF index = DOF_Hv), m/s
          4     5.17581781878E-008                                                     F               2         First time derivative of Platform roll tilt rotation DOF (internal DOF index = DOF_R), rad/s
          5    -2.20980655286E-004                                                     F               2         First time derivative of Platform pitch tilt rotation DOF (internal DOF index = DOF_P), rad/s
          6    -1.71697120095E-005                                                     F               2         First time derivative of Platform yaw rotation DOF (internal DOF index = DOF_Y), rad/s
          7     4.85748052597E-002                                                     F               2         First time derivative of 1st tower fore-aft bending mode DOF (internal DOF index = DOF_TFA1), m/s
          8    -3.74587345868E-003                                                     F               2         First time derivative of 1st tower side-to-side bending mode DOF (internal DOF index = DOF_TSS1), m/s
          9    -1.51657179231E-004                                                     F               2         First time derivative of 2nd tower fore-aft bending mode DOF (internal DOF index = DOF_TFA2), m/s
         10    -7.54953498472E-006                                                     F               2         First time derivative of 2nd tower side-to-side bending mode DOF (internal DOF index = DOF_TSS2), m/s
         11     7.91540086269E-001                                                     F               2         First time derivative of Variable speed generator DOF (internal DOF index = DOF_GeAz), rad/s
         12     5.06878737360E-003                                                     F               2         First time derivative of First time derivative of Platform horizontal surge translation DOF (internal DOF index = DOF_Sg), m/s/s
         13    -4.27610008046E-003                                                     F               2         First time derivative of First time derivative of Platform horizontal sway translation DOF (internal DOF index = DOF_Sw), m/s/s
         14    -1.66741781868E-003                                                     F               2         First time derivative of First time derivative of Platform vertical heave translation DOF (internal DOF index = DOF_Hv), m/s/s
         15     2.68223229796E-004                                                     F               2         First time derivative of First time derivative of Platform roll tilt rotation DOF (internal DOF index = DOF_R), rad/s/s
         16     2.66918767011E-004                                                     F               2         First time derivative of First time derivative of Platform pitch tilt rotation DOF (internal DOF index = DOF_P), rad/s/s
         17     2.06667900784E-005                                                     F               2         First time derivative of First time derivative of Platform yaw rotation DOF (internal DOF index = DOF_Y), rad/s/s
         18    -5.84782883525E-002                                                     F               2         First time derivative of First time derivative of 1st tower fore-aft bending mode DOF (internal DOF index = DOF_TFA1), m/s/s
         19    -4.98208217323E-002                                                     F               2         First time derivative of First time derivative of 1st tower side-to-side bending mode DOF (internal DOF index = DOF_TSS1), m/s/s
         20    -1.99650716968E-003                                                     F               2         First time derivative of First time derivative of 2nd tower fore-aft bending mode DOF (internal DOF index = DOF_TFA2), m/s/s
         21     2.81840388197E-004                                                     F               2         First time derivative of First time derivative of 2nd tower side-to-side bending mode DOF (internal DOF index = DOF_TSS2), m/s/s
         22     9.50430578087E-004                                                     F               2         First time derivative of First time derivative of Variable speed generator DOF (internal DOF index = DOF_GeAz), rad/s/s

Order of inputs:
     Column   Operating Point                                                   Rotating Frame? Derivative Order Description
   ---------- ---------------                                                   --------------- ---------------- -----------
          1     4.26884246826E+002                                                     F               0         Blade 1 X force, node 1, N
          2    -1.45265823364E+002                                                     F               0         Blade 1 Y force, node 1, N
          3     1.28866485596E+002                                                     F               0         Blade 1 Z force, node 1, N
          4     1.60409960938E+003                                                     F               0         Blade 1 X force, node 2, N
          5    -2.31912322998E+002                                                     F               0         Blade 1 Y force, node 2, N
          6     1.26404314041E+001                                                     F               0         Blade 1 Z force, node 2, N
          7     1.77806970215E+003                                                     F               0         Blade 1 X force, node 3, N
          8     2.63649730682E+001                                                     F               0         Blade 1 Y force, node 3, N
          9    -4.11739196777E+002                                                     F               0         Blade 1 Z force, node 3, N
         10     2.12054589844E+003                                                     F               0         Blade 1 X force, node 4, N
         11     2.58035675049E+002                                                     F               0         Blade 1 Y force, node 4, N
         12    -8.31418762207E+002                                                     F               0         Blade 1 Z force, node 4, N
         13     2.46303955078E+003                                                     F               0         Blade 1 X force, node 5, N
         14     4.89710632324E+002                                                     F               0         Blade 1 Y force, node 5, N
         15    -1.25110852051E+003                                                     F               0         Blade 1 Z force, node 5, N
         16     2.80551904297E+003                                                     F               0         Blade 1 X force, node 6, N
         17     7.21383850098E+002                                                     F               0         Blade 1 Y force, node 6, N
         18    -1.67079272461E+003                                                     F               0         Blade 1 Z force, node 6, N
         19     3.14797778320E+003                                                     F               0         Blade 1 X force, node 7, N
         20     9.53050720215E+002                                                     F               0         Blade 1 Y force, node 7, N
         21    -2.09046264648E+003                                                     F               0         Blade 1 Z force, node 7, N
         22     3.49045336914E+003                                                     F               0         Blade 1 X force, node 8, N
         23     1.18472143555E+003                                                     F               0         Blade 1 Y force, node 8, N
         24    -2.51014257812E+003                                                     F               0         Blade 1 Z force, node 8, N
         25     3.83292968750E+003                                                     F               0         Blade 1 X force, node 9, N
         26     1.41639233398E+003                                                     F               0         Blade 1 Y force, node 9, N
         27    -2.92982226562E+003                                                     F               0         Blade 1 Z force, node 9, N
         28     4.17540527344E+003                                                     F               0         Blade 1 X force, node 10, N
         29     1.64806286621E+003                                                     F               0         Blade 1 Y force, node 10, N
         30    -3.34950146484E+003                                                     F               0         Blade 1 Z force, node 10, N
         31     4.51788134766E+003                                                     F               0         Blade 1 X force, node 11, N
         32     1.87973364258E+003                                                     F               0         Blade 1 Y force, node 11, N
         33    -3.76918139648E+003                                                     F               0         Blade 1 Z force, node 11, N
         34     4.86039111328E+003                                                     F               0         Blade 1 X force, node 12, N
         35     2.11141918945E+003                                                     F               0         Blade 1 Y force, node 12, N
         36    -4.18889062500E+003                                                     F               0         Blade 1 Z force, node 12, N
         37     5.20287060547E+003                                                     F               0         Blade 1 X force, node 13, N
         38     2.34309252930E+003                                                     F               0         Blade 1 Y force, node 13, N
         39    -4.60857421875E+003                                                     F               0         Blade 1 Z force, node 13, N
         40     5.54531347656E+003                                                     F               0         Blade 1 X force, node 14, N
         41     2.57474877930E+003                                                     F               0         Blade 1 Y force, node 14, N
         42    -5.02822558594E+003                                                     F               0         Blade 1 Z force, node 14, N
         43     5.88782910156E+003                                                     F               0         Blade 1 X force, node 15, N
         44     2.80643847656E+003                                                     F               0         Blade 1 Y force, node 15, N
         45    -5.44794189453E+003                                                     F               0         Blade 1 Z force, node 15, N
         46     6.23026367188E+003                                                     F               0         Blade 1 X force, node 16, N
         47     3.03808959961E+003                                                     F               0         Blade 1 Y force, node 16, N
         48    -5.86758398438E+003                                                     F               0         Blade 1 Z force, node 16, N
         49     7.60877978516E+003                                                     F               0         Blade 1 X force, node 17, N
         50     3.77670043945E+003                                                     F               0         Blade 1 Y force, node 17, N
         51    -7.26559423828E+003                                                     F               0         Blade 1 Z force, node 17, N
         52     5.69820361328E+003                                                     F               0         Blade 1 X force, node 18, N
         53     2.78408569336E+003                                                     F               0         Blade 1 Y force, node 18, N
         54    -5.37467773438E+003                                                     F               0         Blade 1 Z force, node 18, N
         55     6.84829589844E+003                                                     F               0         Blade 1 X force, node 19, N
         56     3.25702783203E+003                                                     F               0         Blade 1 Y force, node 19, N
         57    -6.32580859375E+003                                                     F               0         Blade 1 Z force, node 19, N
         58     5.72528955078E+003                                                     F               0         Blade 1 X force, node 20, N
         59     2.65139379883E+003                                                     F               0         Blade 1 Y force, node 20, N
         60    -5.18102490234E+003                                                     F               0         Blade 1 Z force, node 20, N
         61     8.25769628906E+003                                                     F               0         Blade 1 X force, node 21, N
         62     3.70705419922E+003                                                     F               0         Blade 1 Y force, node 21, N
         63    -7.29678857422E+003                                                     F               0         Blade 1 Z force, node 21, N
         64     7.10529345703E+003                                                     F               0         Blade 1 X force, node 22, N
         65     3.09317480469E+003                                                     F               0         Blade 1 Y force, node 22, N
         66    -6.13346582031E+003                                                     F               0         Blade 1 Z force, node 22, N
         67     7.13184179688E+003                                                     F               0         Blade 1 X force, node 23, N
         68     3.01633129883E+003                                                     F               0         Blade 1 Y force, node 23, N
         69    -6.02359228516E+003                                                     F               0         Blade 1 Z force, node 23, N
         70     7.28039599609E+003                                                     F               0         Blade 1 X force, node 24, N
         71     2.99130200195E+003                                                     F               0         Blade 1 Y force, node 24, N
         72    -6.01708642578E+003                                                     F               0         Blade 1 Z force, node 24, N
         73     7.28683398438E+003                                                     F               0         Blade 1 X force, node 25, N
         74     2.91199755859E+003                                                     F               0         Blade 1 Y force, node 25, N
         75    -5.89930761719E+003                                                     F               0         Blade 1 Z force, node 25, N
         76     7.33140820312E+003                                                     F               0         Blade 1 X force, node 26, N
         77     2.84963867188E+003                                                     F               0         Blade 1 Y force, node 26, N
         78    -5.81496484375E+003                                                     F               0         Blade 1 Z force, node 26, N
         79     8.57504589844E+003                                                     F               0         Blade 1 X force, node 27, N
         80     3.23537890625E+003                                                     F               0         Blade 1 Y force, node 27, N
         81    -6.65468457031E+003                                                     F               0         Blade 1 Z force, node 27, N
         82     6.18632373047E+003                                                     F               0         Blade 1 X force, node 28, N
         83     2.27008520508E+003                                                     F               0         Blade 1 Y force, node 28, N
         84    -4.70473632812E+003                                                     F               0         Blade 1 Z force, node 28, N
         85     7.38496289062E+003                                                     F               0         Blade 1 X force, node 29, N
         86     2.64726513672E+003                                                     F               0         Blade 1 Y force, node 29, N
         87    -5.52217968750E+003                                                     F               0         Blade 1 Z force, node 29, N
         88     6.13519189453E+003                                                     F               0         Blade 1 X force, node 30, N
         89     2.14740747070E+003                                                     F               0         Blade 1 Y force, node 30, N
         90    -4.50975537109E+003                                                     F               0         Blade 1 Z force, node 30, N
         91     8.61075976562E+003                                                     F               0         Blade 1 X force, node 31, N
         92     2.93131469727E+003                                                     F               0         Blade 1 Y force, node 31, N
         93    -6.20541113281E+003                                                     F               0         Blade 1 Z force, node 31, N
         94     7.32740527344E+003                                                     F               0         Blade 1 X force, node 32, N
         95     2.42837133789E+003                                                     F               0         Blade 1 Y force, node 32, N
         96    -5.18132324219E+003                                                     F               0         Blade 1 Z force, node 32, N
         97     7.28751562500E+003                                                     F               0         Blade 1 X force, node 33, N
         98     2.35327416992E+003                                                     F               0         Blade 1 Y force, node 33, N
         99    -5.06016796875E+003                                                     F               0         Blade 1 Z force, node 33, N
        100     7.24096533203E+003                                                     F               0         Blade 1 X force, node 34, N
        101     2.27758081055E+003                                                     F               0         Blade 1 Y force, node 34, N
        102    -4.93672314453E+003                                                     F               0         Blade 1 Z force, node 34, N
        103     7.16031201172E+003                                                     F               0         Blade 1 X force, node 35, N
        104     2.19709960938E+003                                                     F               0         Blade 1 Y force, node 35, N
        105    -4.79894824219E+003                                                     F               0         Blade 1 Z force, node 35, N
        106     7.06922753906E+003                                                     F               0         Blade 1 X force, node 36, N
        107     2.11483447266E+003                                                     F               0         Blade 1 Y force, node 36, N
        108    -4.65631201172E+003                                                     F               0         Blade 1 Z force, node 36, N
        109     8.14503857422E+003                                                     F               0         Blade 1 X force, node 37, N
        110     2.36897583008E+003                                                     F               0         Blade 1 Y force, node 37, N
        111    -5.26322656250E+003                                                     F               0         Blade 1 Z force, node 37, N
        112     5.70222607422E+003                                                     F               0         Blade 1 X force, node 38, N
        113     1.61532092285E+003                                                     F               0         Blade 1 Y force, node 38, N
        114    -3.61986938477E+003                                                     F               0         Blade 1 Z force, node 38, N
        115     6.75071484375E+003                                                     F               0         Blade 1 X force, node 39, N
        116     1.87016992188E+003                                                     F               0         Blade 1 Y force, node 39, N
        117    -4.22212890625E+003                                                     F               0         Blade 1 Z force, node 39, N
        118     5.56016064453E+003                                                     F               0         Blade 1 X force, node 40, N
        119     1.50437231445E+003                                                     F               0         Blade 1 Y force, node 40, N
        120    -3.42347631836E+003                                                     F               0         Blade 1 Z force, node 40, N
        121     7.57186035156E+003                                                     F               0         Blade 1 X force, node 41, N
        122     1.99224975586E+003                                                     F               0         Blade 1 Y force, node 41, N
        123    -4.57736962891E+003                                                     F               0         Blade 1 Z force, node 41, N
        124     6.35186914062E+003                                                     F               0         Blade 1 X force, node 42, N
        125     1.62651391602E+003                                                     F               0         Blade 1 Y force, node 42, N
        126    -3.77264794922E+003                                                     F               0         Blade 1 Z force, node 42, N
        127     6.20143554688E+003                                                     F               0         Blade 1 X force, node 43, N
        128     1.54531274414E+003                                                     F               0         Blade 1 Y force, node 43, N
        129    -3.61918798828E+003                                                     F               0         Blade 1 Z force, node 43, N
        130     6.07872509766E+003                                                     F               0         Blade 1 X force, node 44, N
        131     1.47202197266E+003                                                     F               0         Blade 1 Y force, node 44, N
        132    -3.48341284180E+003                                                     F               0         Blade 1 Z force, node 44, N
        133     5.84565039062E+003                                                     F               0         Blade 1 X force, node 45, N
        134     1.37746496582E+003                                                     F               0         Blade 1 Y force, node 45, N