
Linearized model: Predictions were generated on 13-Feb-2024 at 11:29:37 using OpenFAST, compiled as a 64-bit application using single precision at commit v3.5.1
 linked with  NWTC Subroutine Library; ElastoDyn; InflowWind; AeroDyn; ServoDyn; HydroDyn; MAP++ (<1.20.10>, <Oct-20-2023>)

Description from the FAST input file: CCT-9 Campign 4 model. Input files to be run with OpenFAST 3.5.0. GitHub branch from Lu Wang (https://github.com/luwang00/openfast/tree/dev) compiled on March 7, 2023.

Simulation information:
   Simulation time:                  1217.0000 s
   Rotor Speed:                         0.7918 rad/s
   Azimuth:                             4.8886 rad
   Wind Speed:                         16.0000 m/s
   Number of continuous states:         0
   Number of discrete states:           0
   Number of constraint states:         0
   Number of inputs:                  303
   Number of outputs:                   1
   Jacobians included in this file?    No

Order of inputs:
     Column   Operating Point                                                   Rotating Frame? Derivative Order Description
   ---------- ---------------                                                   --------------- ---------------- -----------
          1    -1.08005075455E+001                                                     F               0         X-component position of node 1 (hub), m
          2     0.00000000000E+000                                                     F               0         Y-component position of node 1 (hub), m
          3     1.49740173340E+002                                                     F               0         Z-component position of node 1 (hub), m
          4     1.49329614639E+001                                                     F               0         X-component position of node 2 (blade 1, node 1), m
          5    -2.94835472107E+000                                                     F               0         Y-component position of node 2 (blade 1, node 1), m
          6     1.50886322021E+002                                                     F               0         Z-component position of node 2 (blade 1, node 1), m
          7     1.49865083694E+001                                                     F               0         X-component position of node 3 (blade 1, node 2), m
          8    -1.64773476124E+000                                                     F               0         Y-component position of node 3 (blade 1, node 2), m
          9     1.51182113647E+002                                                     F               0         Z-component position of node 3 (blade 1, node 2), m
         10     1.57146596909E+001                                                     F               0         X-component position of node 4 (blade 1, node 3), m
         11     1.60384426117E+001                                                     F               0         Y-component position of node 4 (blade 1, node 3), m
         12     1.55204406738E+002                                                     F               0         Z-component position of node 4 (blade 1, node 3), m
         13     1.58697986603E+001                                                     F               0         X-component position of node 5 (blade 1, node 4), m
         14     1.98065872192E+001                                                     F               0         Y-component position of node 5 (blade 1, node 4), m
         15     1.56061370850E+002                                                     F               0         Z-component position of node 5 (blade 1, node 4), m
         16     1.60249633789E+001                                                     F               0         X-component position of node 6 (blade 1, node 5), m
         17     2.35754489899E+001                                                     F               0         Y-component position of node 6 (blade 1, node 5), m
         18     1.56918502808E+002                                                     F               0         Z-component position of node 6 (blade 1, node 5), m
         19     1.61801013947E+001                                                     F               0         X-component position of node 7 (blade 1, node 6), m
         20     2.73436088562E+001                                                     F               0         Y-component position of node 7 (blade 1, node 6), m
         21     1.57775482178E+002                                                     F               0         Z-component position of node 7 (blade 1, node 6), m
         22     1.63352394104E+001                                                     F               0         X-component position of node 8 (blade 1, node 7), m
         23     3.11117820740E+001                                                     F               0         Y-component position of node 8 (blade 1, node 7), m
         24     1.58632461548E+002                                                     F               0         Z-component position of node 8 (blade 1, node 7), m
         25     1.64904060364E+001                                                     F               0         X-component position of node 9 (blade 1, node 8), m
         26     3.48806266785E+001                                                     F               0         Y-component position of node 9 (blade 1, node 8), m
         27     1.59489593506E+002                                                     F               0         Z-component position of node 9 (blade 1, node 8), m
         28     1.66455421448E+001                                                     F               0         X-component position of node 10 (blade 1, node 9), m
         29     3.86487998962E+001                                                     F               0         Y-component position of node 10 (blade 1, node 9), m
         30     1.60346572876E+002                                                     F               0         Z-component position of node 10 (blade 1, node 9), m
         31     1.68006820679E+001                                                     F               0         X-component position of node 11 (blade 1, node 10), m
         32     4.24169616699E+001                                                     F               0         Y-component position of node 11 (blade 1, node 10), m
         33     1.61203552246E+002                                                     F               0         Z-component position of node 11 (blade 1, node 10), m
         34     1.69558181763E+001                                                     F               0         X-component position of node 12 (blade 1, node 11), m
         35     4.61851348877E+001                                                     F               0         Y-component position of node 12 (blade 1, node 11), m
         36     1.62060531616E+002                                                     F               0         Z-component position of node 12 (blade 1, node 11), m
         37     1.71109867096E+001                                                     F               0         X-component position of node 13 (blade 1, node 12), m
         38     4.99539680481E+001                                                     F               0         Y-component position of node 13 (blade 1, node 12), m
         39     1.62917648315E+002                                                     F               0         Z-component position of node 13 (blade 1, node 12), m
         40     1.72661228180E+001                                                     F               0         X-component position of node 14 (blade 1, node 13), m
         41     5.37221412659E+001                                                     F               0         Y-component position of node 14 (blade 1, node 13), m
         42     1.63774627686E+002                                                     F               0         Z-component position of node 14 (blade 1, node 13), m
         43     1.74212627411E+001                                                     F               0         X-component position of node 15 (blade 1, node 14), m
         44     5.74903030396E+001                                                     F               0         Y-component position of node 15 (blade 1, node 14), m
         45     1.64631607056E+002                                                     F               0         Z-component position of node 15 (blade 1, node 14), m
         46     1.75764274597E+001                                                     F               0         X-component position of node 16 (blade 1, node 15), m
         47     6.12591552734E+001                                                     F               0         Y-component position of node 16 (blade 1, node 15), m
         48     1.65488739014E+002                                                     F               0         Z-component position of node 16 (blade 1, node 15), m
         49     1.77315654755E+001                                                     F               0         X-component position of node 17 (blade 1, node 16), m
         50     6.50273208618E+001                                                     F               0         Y-component position of node 17 (blade 1, node 16), m
         51     1.66345718384E+002                                                     F               0         Z-component position of node 17 (blade 1, node 16), m
         52     1.78867034912E+001                                                     F               0         X-component position of node 18 (blade 1, node 17), m
         53     6.87955017090E+001                                                     F               0         Y-component position of node 18 (blade 1, node 17), m
         54     1.67202697754E+002                                                     F               0         Z-component position of node 18 (blade 1, node 17), m
         55     1.80418415070E+001                                                     F               0         X-component position of node 19 (blade 1, node 18), m
         56     7.25636596680E+001                                                     F               0         Y-component position of node 19 (blade 1, node 18), m
         57     1.68059661865E+002                                                     F               0         Z-component position of node 19 (blade 1, node 18), m
         58     1.81970081329E+001                                                     F               0         X-component position of node 20 (blade 1, node 19), m
         59     7.63324966431E+001                                                     F               0         Y-component position of node 20 (blade 1, node 19), m
         60     1.68916793823E+002                                                     F               0         Z-component position of node 20 (blade 1, node 19), m
         61     1.83521442413E+001                                                     F               0         X-component position of node 21 (blade 1, node 20), m
         62     8.01006698608E+001                                                     F               0         Y-component position of node 21 (blade 1, node 20), m
         63     1.69773773193E+002                                                     F               0         Z-component position of node 21 (blade 1, node 20), m
         64     1.85072841644E+001                                                     F               0         X-component position of node 22 (blade 1, node 21), m
         65     8.38688354492E+001                                                     F               0         Y-component position of node 22 (blade 1, node 21), m
         66     1.70630752563E+002                                                     F               0         Z-component position of node 22 (blade 1, node 21), m
         67     1.86624488831E+001                                                     F               0         X-component position of node 23 (blade 1, node 22), m
         68     8.76376800537E+001                                                     F               0         Y-component position of node 23 (blade 1, node 22), m
         69     1.71487884521E+002                                                     F               0         Z-component position of node 23 (blade 1, node 22), m
         70     1.88175849915E+001                                                     F               0         X-component position of node 24 (blade 1, node 23), m
         71     9.14058532715E+001                                                     F               0         Y-component position of node 24 (blade 1, node 23), m
         72     1.72344863892E+002                                                     F               0         Z-component position of node 24 (blade 1, node 23), m
         73     1.89727249146E+001                                                     F               0         X-component position of node 25 (blade 1, node 24), m
         74     9.51740188599E+001                                                     F               0         Y-component position of node 25 (blade 1, node 24), m
         75     1.73201843262E+002                                                     F               0         Z-component position of node 25 (blade 1, node 24), m
         76     1.91278629303E+001                                                     F               0         X-component position of node 26 (blade 1, node 25), m
         77     9.89421844482E+001                                                     F               0         Y-component position of node 26 (blade 1, node 25), m
         78     1.74058822632E+002                                                     F               0         Z-component position of node 26 (blade 1, node 25), m
         79     1.92830295563E+001                                                     F               0         X-component position of node 27 (blade 1, node 26), m
         80     1.02711036682E+002                                                     F               0         Y-component position of node 27 (blade 1, node 26), m
         81     1.74915939331E+002                                                     F               0         Z-component position of node 27 (blade 1, node 26), m
         82     1.94381675720E+001                                                     F               0         X-component position of node 28 (blade 1, node 27), m
         83     1.06479194641E+002                                                     F               0         Y-component position of node 28 (blade 1, node 27), m
         84     1.75772933960E+002                                                     F               0         Z-component position of node 28 (blade 1, node 27), m
         85     1.95696887970E+001                                                     F               0         X-component position of node 29 (blade 1, node 28), m
         86     1.09673797607E+002                                                     F               0         Y-component position of node 29 (blade 1, node 28), m
         87     1.76499450684E+002                                                     F               0         Z-component position of node 29 (blade 1, node 28), m
         88     1.56152067184E+001                                                     F               0         X-component position of node 30 (blade 2, node 1), m
         89    -1.21244945526E+001                                                     F               0         Y-component position of node 30 (blade 2, node 1), m
         90     1.53608047485E+002                                                     F               0         Z-component position of node 30 (blade 2, node 1), m
         91     1.58331451416E+001                                                     F               0         X-component position of node 31 (blade 2, node 2), m
         92    -1.30349283218E+001                                                     F               0         Y-component position of node 31 (blade 2, node 2), m
         93     1.54559661865E+002                                                     F               0         Z-component position of node 31 (blade 2, node 2), m
         94     1.87967453003E+001                                                     F               0         X-component position of node 32 (blade 2, node 3), m
         95    -2.54153671265E+001                                                     F               0         Y-component position of node 32 (blade 2, node 3), m
         96     1.67499969482E+002                                                     F               0         Z-component position of node 32 (blade 2, node 3), m
         97     1.94281616211E+001                                                     F               0         X-component position of node 33 (blade 2, node 4), m
         98    -2.80531101227E+001                                                     F               0         Y-component position of node 33 (blade 2, node 4), m
         99     1.70256988525E+002                                                     F               0         Z-component position of node 33 (blade 2, node 4), m
        100     2.00596923828E+001                                                     F               0         X-component position of node 34 (blade 2, node 5), m
        101    -3.06913204193E+001                                                     F               0         Y-component position of node 34 (blade 2, node 5), m
        102     1.73014526367E+002                                                     F               0         Z-component position of node 34 (blade 2, node 5), m
        103     2.06911106110E+001                                                     F               0         X-component position of node 35 (blade 2, node 6), m
        104    -3.33290634155E+001                                                     F               0         Y-component position of node 35 (blade 2, node 6), m
        105     1.75771545410E+002                                                     F               0         Z-component position of node 35 (blade 2, node 6), m
        106     2.13225269318E+001                                                     F               0         X-component position of node 36 (blade 2, node 7), m
        107    -3.59668045044E+001                                                     F               0         Y-component position of node 36 (blade 2, node 7), m
        108     1.78528579712E+002                                                     F               0         Z-component position of node 36 (blade 2, node 7), m
        109     2.19540576935E+001                                                     F               0         X-component position of node 37 (blade 2, node 8), m
        110    -3.86050148010E+001                                                     F               0         Y-component position of node 37 (blade 2, node 8), m
        111     1.81286102295E+002                                                     F               0         Z-component position of node 37 (blade 2, node 8), m
        112     2.25854740143E+001                                                     F               0         X-component position of node 38 (blade 2, node 9), m
        113    -4.12427597046E+001                                                     F               0         Y-component position of node 38 (blade 2, node 9), m
        114     1.84043136597E+002                                                     F               0         Z-component position of node 38 (blade 2, node 9), m
        115     2.32168903351E+001                                                     F               0         X-component position of node 39 (blade 2, node 10), m
        116    -4.38804931641E+001                                                     F               0         Y-component position of node 39 (blade 2, node 10), m
        117     1.86800155640E+002                                                     F               0         Z-component position of node 39 (blade 2, node 10), m
        118     2.38483085632E+001                                                     F               0         X-component position of node 40 (blade 2, node 11), m
        119    -4.65182380676E+001                                                     F               0         Y-component position of node 40 (blade 2, node 11), m
        120     1.89557189941E+002                                                     F               0         Z-component position of node 40 (blade 2, node 11), m
        121     2.44798393250E+001                                                     F               0         X-component position of node 41 (blade 2, node 12), m
        122    -4.91564483643E+001                                                     F               0         Y-component position of node 41 (blade 2, node 12), m
        123     1.92314712524E+002                                                     F               0         Z-component position of node 41 (blade 2, node 12), m
        124     2.51112537384E+001                                                     F               0         X-component position of node 42 (blade 2, node 13), m
        125    -5.17941894531E+001                                                     F               0         Y-component position of node 42 (blade 2, node 13), m
        126     1.95071731567E+002                                                     F               0         Z-component position of node 42 (blade 2, node 13), m
        127     2.57426738739E+001                                                     F               0         X-component position of node 43 (blade 2, node 14), m
        128    -5.44319267273E+001                                                     F               0         Y-component position of node 43 (blade 2, node 14), m
        129     1.97828765869E+002                                                     F               0         Z-component position of node 43 (blade 2, node 14), m
        130     2.63742027283E+001                                                     F               0         X-component position of node 44 (blade 2, node 15), m
        131    -5.70701484680E+001                                                     F               0         Y-component position of node 44 (blade 2, node 15), m
        132     2.00586288452E+002                                                     F               0         Z-component position of node 44 (blade 2, node 15), m
        133     2.70056190491E+001                                                     F               0         X-component position of node 45 (blade 2, node 16), m
        134    -5.97078895569E+001                                                     F               0         Y-component position of node 45 (blade 2, node 16), m
        135     2.03343322754E+002                                                     F               0         Z-component position of node 45 (blade 2, node 16), m
        136     2.76370353699E+001                                                     F               0         X-component position of node 46 (blade 2, node 17), m
        137    -6.23456306458E+001                                                     F               0         Y-component position of node 46 (blade 2, node 17), m
        138     2.06100341797E+002                                                     F               0         Z-component position of node 46 (blade 2, node 17), m
        139     2.82684516907E+001                                                     F               0         X-component position of node 47 (blade 2, node 18), m
        140    -6.49833679199E+001                                                     F               0         Y-component position of node 47 (blade 2, node 18), m
        141     2.08857376099E+002                                                     F               0         Z-component position of node 47 (blade 2, node 18), m
        142     2.88999824524E+001                                                     F               0         X-component position of node 48 (blade 2, node 19), m
        143    -6.76215744019E+001                                                     F               0         Y-component position of node 48 (blade 2, node 19), m
        144     2.11614898682E+002                                                     F               0         Z-component position of node 48 (blade 2, node 19), m
        145     2.95313987732E+001                                                     F               0         X-component position of node 49 (blade 2, node 20), m
        146    -7.02593231201E+001                                                     F               0         Y-component position of node 49 (blade 2, node 20), m
        147     2.14371932983E+002                                                     F               0         Z-component position of node 49 (blade 2, node 20), m
        148     3.01628189087E+001                                                     F               0         X-component position of node 50 (blade 2, node 21), m
        149    -7.28970642090E+001                                                     F               0         Y-component position of node 50 (blade 2, node 21), m
        150     2.17128967285E+002                                                     F               0         Z-component position of node 50 (blade 2, node 21), m
        151     3.07943477631E+001                                                     F               0         X-component position of node 51 (blade 2, node 22), m
        152    -7.55352783203E+001                                                     F               0         Y-component position of node 51 (blade 2, node 22), m
        153     2.19886489868E+002                                                     F               0         Z-component position of node 51 (blade 2, node 22), m
        154     3.14257640839E+001                                                     F               0         X-component position of node 52 (blade 2, node 23), m
        155    -7.81730194092E+001                                                     F               0         Y-component position of node 52 (blade 2, node 23), m
        156     2.22643508911E+002                                                     F               0         Z-component position of node 52 (blade 2, node 23), m
        157     3.20571784973E+001                                                     F               0         X-component position of node 53 (blade 2, node 24), m
        158    -8.08107604980E+001                                                     F               0         Y-component position of node 53 (blade 2, node 24), m
        159     2.25400527954E+002                                                     F               0         Z-component position of node 53 (blade 2, node 24), m
        160     3.26885948181E+001                                                     F               0         X-component position of node 54 (blade 2, node 25), m
        161    -8.34484939575E+001                                                     F               0         Y-component position of node 54 (blade 2, node 25), m
        162     2.28157562256E+002                                                     F               0         Z-component position of node 54 (blade 2, node 25), m
        163     3.33201255798E+001                                                     F               0         X-component position of node 55 (blade 2, node 26), m
        164    -8.60867233276E+001                                                     F               0         Y-component position of node 55 (blade 2, node 26), m
        165     2.30915084839E+002                                                     F               0         Z-component position of node 55 (blade 2, node 26), m
        166     3.39515419006E+001                                                     F               0         X-component position of node 56 (blade 2, node 27), m
        167    -8.87244644165E+001                                                     F               0         Y-component position of node 56 (blade 2, node 27), m
        168     2.33672119141E+002                                                     F               0         Z-component position of node 56 (blade 2, node 27), m
        169     3.44868469238E+001                                                     F               0         X-component position of node 57 (blade 2, node 28), m
        170    -9.09606857300E+001                                                     F               0         Y-component position of node 57 (blade 2, node 28), m
        171     2.36009475708E+002                                                     F               0         Z-component position of node 57 (blade 2, node 28), m
        172     1.35840349197E+001                                                     F               0         X-component position of node 58 (blade 3, node 1), m