
Linearized model: Predictions were generated on 06-Feb-2024 at 08:44:08 using OpenFAST, compiled as a 64-bit application using single precision at commit v3.5.1
 linked with  NWTC Subroutine Library; ElastoDyn; InflowWind; AeroDyn; ServoDyn; HydroDyn; MAP++ (<1.20.10>, <Oct-20-2023>)

Description from the FAST input file: CCT-9 Campign 4 model. Input files to be run with OpenFAST 3.5.0. GitHub branch from Lu Wang (https://github.com/luwang00/openfast/tree/dev) compiled on March 7, 2023.

Simulation information:
   Simulation time:                  2501.2000 s
   Rotor Speed:                         0.8859 rad/s
   Azimuth:                             4.2137 rad
   Wind Speed:                         10.0000 m/s
   Number of continuous states:         0
   Number of discrete states:           0
   Number of constraint states:         0
   Number of inputs:                 1746
   Number of outputs:                   4
   Jacobians included in this file?    No

Order of inputs:
     Column   Operating Point                     Rotating Frame? Derivative Order Description
   ---------- ---------------                     --------------- ---------------- -----------
          1    1.391E+01                                 F               0         Tower X translation displacement, node 1, m
          2    5.277E-02                                 F               0         Tower Y translation displacement, node 1, m
          3   -1.865E-01                                 F               0         Tower Z translation displacement, node 1, m
          4    1.488E+01                                 F               0         Tower X translation displacement, node 2, m
          5    7.180E-02                                 F               0         Tower Y translation displacement, node 2, m
          6   -2.251E-01                                 F               0         Tower Z translation displacement, node 2, m
          7    1.588E+01                                 F               0         Tower X translation displacement, node 3, m
          8    9.119E-02                                 F               0         Tower Y translation displacement, node 3, m
          9   -2.653E-01                                 F               0         Tower Z translation displacement, node 3, m
         10    1.689E+01                                 F               0         Tower X translation displacement, node 4, m
         11    1.109E-01                                 F               0         Tower Y translation displacement, node 4, m
         12   -3.067E-01                                 F               0         Tower Z translation displacement, node 4, m
         13    1.791E+01                                 F               0         Tower X translation displacement, node 5, m
         14    1.308E-01                                 F               0         Tower Y translation displacement, node 5, m
         15   -3.491E-01                                 F               0         Tower Z translation displacement, node 5, m
         16    1.894E+01                                 F               0         Tower X translation displacement, node 6, m
         17    1.509E-01                                 F               0         Tower Y translation displacement, node 6, m
         18   -3.924E-01                                 F               0         Tower Z translation displacement, node 6, m
         19    1.998E+01                                 F               0         Tower X translation displacement, node 7, m
         20    1.712E-01                                 F               0         Tower Y translation displacement, node 7, m
         21   -4.363E-01                                 F               0         Tower Z translation displacement, node 7, m
         22    2.103E+01                                 F               0         Tower X translation displacement, node 8, m
         23    1.916E-01                                 F               0         Tower Y translation displacement, node 8, m
         24   -4.806E-01                                 F               0         Tower Z translation displacement, node 8, m
         25    2.208E+01                                 F               0         Tower X translation displacement, node 9, m
         26    2.121E-01                                 F               0         Tower Y translation displacement, node 9, m
         27   -5.253E-01                                 F               0         Tower Z translation displacement, node 9, m
         28    2.313E+01                                 F               0         Tower X translation displacement, node 10, m
         29    2.328E-01                                 F               0         Tower Y translation displacement, node 10, m
         30   -5.703E-01                                 F               0         Tower Z translation displacement, node 10, m
         31    2.419E+01                                 F               0         Tower X translation displacement, node 11, m
         32    2.534E-01                                 F               0         Tower Y translation displacement, node 11, m
         33   -6.153E-01                                 F               0         Tower Z translation displacement, node 11, m
         34    9.969E-01,  1.147E-03, -7.829E-02         F               0         Tower X orientation angle, node 1, rad
         35   -1.263E-03,  1.000E+00, -1.435E-03         F               0         Tower Y orientation angle, node 1, rad
         36    7.828E-02,  1.529E-03,  9.969E-01         F               0         Tower Z orientation angle, node 1, rad
         37    9.968E-01,  1.145E-03, -7.982E-02         F               0         Tower X orientation angle, node 2, rad
         38   -1.265E-03,  1.000E+00, -1.460E-03         F               0         Tower Y orientation angle, node 2, rad
         39    7.982E-02,  1.556E-03,  9.968E-01         F               0         Tower Z orientation angle, node 2, rad
         40    9.967E-01,  1.143E-03, -8.116E-02         F               0         Tower X orientation angle, node 3, rad
         41   -1.267E-03,  1.000E+00, -1.483E-03         F               0         Tower Y orientation angle, node 3, rad
         42    8.116E-02,  1.580E-03,  9.967E-01         F               0         Tower Z orientation angle, node 3, rad
         43    9.966E-01,  1.141E-03, -8.228E-02         F               0         Tower X orientation angle, node 4, rad
         44   -1.269E-03,  1.000E+00, -1.503E-03         F               0         Tower Y orientation angle, node 4, rad
         45    8.228E-02,  1.602E-03,  9.966E-01         F               0         Tower Z orientation angle, node 4, rad
         46    9.965E-01,  1.139E-03, -8.319E-02         F               0         Tower X orientation angle, node 5, rad
         47   -1.270E-03,  1.000E+00, -1.520E-03         F               0         Tower Y orientation angle, node 5, rad
         48    8.319E-02,  1.620E-03,  9.965E-01         F               0         Tower Z orientation angle, node 5, rad
         49    9.965E-01,  1.138E-03, -8.391E-02         F               0         Tower X orientation angle, node 6, rad
         50   -1.271E-03,  1.000E+00, -1.534E-03         F               0         Tower Y orientation angle, node 6, rad
         51    8.391E-02,  1.636E-03,  9.965E-01         F               0         Tower Z orientation angle, node 6, rad
         52    9.964E-01,  1.137E-03, -8.445E-02         F               0         Tower X orientation angle, node 7, rad
         53   -1.272E-03,  1.000E+00, -1.546E-03         F               0         Tower Y orientation angle, node 7, rad
         54    8.444E-02,  1.648E-03,  9.964E-01         F               0         Tower Z orientation angle, node 7, rad
         55    9.964E-01,  1.137E-03, -8.483E-02         F               0         Tower X orientation angle, node 8, rad
         56   -1.273E-03,  1.000E+00, -1.555E-03         F               0         Tower Y orientation angle, node 8, rad
         57    8.483E-02,  1.658E-03,  9.964E-01         F               0         Tower Z orientation angle, node 8, rad
         58    9.964E-01,  1.136E-03, -8.509E-02         F               0         Tower X orientation angle, node 9, rad
         59   -1.274E-03,  1.000E+00, -1.562E-03         F               0         Tower Y orientation angle, node 9, rad
         60    8.508E-02,  1.665E-03,  9.964E-01         F               0         Tower Z orientation angle, node 9, rad
         61    9.964E-01,  1.136E-03, -8.524E-02         F               0         Tower X orientation angle, node 10, rad
         62   -1.274E-03,  1.000E+00, -1.567E-03         F               0         Tower Y orientation angle, node 10, rad
         63    8.524E-02,  1.670E-03,  9.964E-01         F               0         Tower Z orientation angle, node 10, rad
         64    9.964E-01,  1.136E-03, -8.531E-02         F               0         Tower X orientation angle, node 11, rad
         65   -1.274E-03,  1.000E+00, -1.569E-03         F               0         Tower Y orientation angle, node 11, rad
         66    8.531E-02,  1.672E-03,  9.964E-01         F               0         Tower Z orientation angle, node 11, rad
         67   -1.635E-04                                 F               0         Tower X translation velocity, node 1, m/s
         68    8.545E-03                                 F               0         Tower Y translation velocity, node 1, m/s
         69    2.100E-03                                 F               0         Tower Z translation velocity, node 1, m/s
         70   -2.404E-04                                 F               0         Tower X translation velocity, node 2, m/s
         71    1.458E-02                                 F               0         Tower Y translation velocity, node 2, m/s
         72    2.096E-03                                 F               0         Tower Z translation velocity, node 2, m/s
         73   -2.550E-04                                 F               0         Tower X translation velocity, node 3, m/s
         74    2.075E-02                                 F               0         Tower Y translation velocity, node 3, m/s
         75    2.088E-03                                 F               0         Tower Z translation velocity, node 3, m/s
         76   -2.203E-04                                 F               0         Tower X translation velocity, node 4, m/s
         77    2.701E-02                                 F               0         Tower Y translation velocity, node 4, m/s
         78    2.075E-03                                 F               0         Tower Z translation velocity, node 4, m/s
         79   -1.431E-04                                 F               0         Tower X translation velocity, node 5, m/s
         80    3.336E-02                                 F               0         Tower Y translation velocity, node 5, m/s
         81    2.058E-03                                 F               0         Tower Z translation velocity, node 5, m/s
         82   -2.985E-05                                 F               0         Tower X translation velocity, node 6, m/s
         83    3.979E-02                                 F               0         Tower Y translation velocity, node 6, m/s
         84    2.038E-03                                 F               0         Tower Z translation velocity, node 6, m/s
         85    1.110E-04                                 F               0         Tower X translation velocity, node 7, m/s
         86    4.627E-02                                 F               0         Tower Y translation velocity, node 7, m/s
         87    2.016E-03                                 F               0         Tower Z translation velocity, node 7, m/s
         88    2.763E-04                                 F               0         Tower X translation velocity, node 8, m/s
         89    5.281E-02                                 F               0         Tower Y translation velocity, node 8, m/s
         90    1.991E-03                                 F               0         Tower Z translation velocity, node 8, m/s
         91    4.600E-04                                 F               0         Tower X translation velocity, node 9, m/s
         92    5.939E-02                                 F               0         Tower Y translation velocity, node 9, m/s
         93    1.964E-03                                 F               0         Tower Z translation velocity, node 9, m/s
         94    6.567E-04                                 F               0         Tower X translation velocity, node 10, m/s
         95    6.599E-02                                 F               0         Tower Y translation velocity, node 10, m/s
         96    1.936E-03                                 F               0         Tower Z translation velocity, node 10, m/s
         97    8.610E-04                                 F               0         Tower X translation velocity, node 11, m/s
         98    7.261E-02                                 F               0         Tower Y translation velocity, node 11, m/s
         99    1.908E-03                                 F               0         Tower Z translation velocity, node 11, m/s
        100    2.489E+01                                 F               0         Hub X translation displacement, node 1, m
        101    2.543E-01                                 F               0         Hub Y translation displacement, node 1, m
        102    2.775E-01                                 F               0         Hub Z translation displacement, node 1, m
        103    9.820E-01,  9.547E-04, -1.890E-01         F               0         Hub X orientation angle, node 1, rad
        104   -1.654E-01, -4.799E-01, -8.616E-01         F               0         Hub Y orientation angle, node 1, rad
        105   -9.152E-02,  8.773E-01, -4.711E-01         F               0         Hub Z orientation angle, node 1, rad
        106    8.694E-01                                 F               0         Hub X rotation velocity, node 1, rad/s
        107    8.627E-04                                 F               0         Hub Y rotation velocity, node 1, rad/s
        108   -1.673E-01                                 F               0         Hub Z rotation velocity, node 1, rad/s
        109    9.865E-01,  1.519E-02, -1.634E-01         F               0         Blade root 1 X orientation angle, node 1, rad
        110   -1.362E-01, -4.796E-01, -8.668E-01         F               0         Blade root 1 Y orientation angle, node 1, rad
        111   -9.152E-02,  8.773E-01, -4.711E-01         F               0         Blade root 1 Z orientation angle, node 1, rad
        112    9.814E-01, -2.870E-02, -1.896E-01         F               0         Blade root 2 X orientation angle, node 1, rad
        113    3.256E-02,  9.993E-01,  1.724E-02         F               0         Blade root 2 Y orientation angle, node 1, rad
        114    1.890E-01, -2.309E-02,  9.817E-01         F               0         Blade root 2 Z orientation angle, node 1, rad
        115    9.767E-01,  1.638E-02, -2.138E-01         F               0         Blade root 3 X orientation angle, node 1, rad
        116    1.910E-01, -5.196E-01,  8.328E-01         F               0         Blade root 3 Y orientation angle, node 1, rad
        117   -9.745E-02, -8.542E-01, -5.106E-01         F               0         Blade root 3 Z orientation angle, node 1, rad
        118    2.381E+01                                 F               0         Blade 1 X translation displacement, node 1, m
        119    5.115E+00                                 F               0         Blade 1 Y translation displacement, node 1, m
        120   -7.842E+00                                 F               0         Blade 1 Z translation displacement, node 1, m
        121    2.355E+01                                 F               0         Blade 1 X translation displacement, node 2, m
        122    6.286E+00                                 F               0         Blade 1 Y translation displacement, node 2, m
        123   -9.798E+00                                 F               0         Blade 1 Z translation displacement, node 2, m
        124    1.999E+01                                 F               0         Blade 1 X translation displacement, node 3, m
        125    2.221E+01                                 F               0         Blade 1 Y translation displacement, node 3, m
        126   -3.640E+01                                 F               0         Blade 1 Z translation displacement, node 3, m
        127    1.923E+01                                 F               0         Blade 1 X translation displacement, node 4, m
        128    2.560E+01                                 F               0         Blade 1 Y translation displacement, node 4, m
        129   -4.207E+01                                 F               0         Blade 1 Z translation displacement, node 4, m
        130    1.847E+01                                 F               0         Blade 1 X translation displacement, node 5, m
        131    2.900E+01                                 F               0         Blade 1 Y translation displacement, node 5, m
        132   -4.774E+01                                 F               0         Blade 1 Z translation displacement, node 5, m
        133    1.771E+01                                 F               0         Blade 1 X translation displacement, node 6, m
        134    3.239E+01                                 F               0         Blade 1 Y translation displacement, node 6, m
        135   -5.341E+01                                 F               0         Blade 1 Z translation displacement, node 6, m
        136    1.696E+01                                 F               0         Blade 1 X translation displacement, node 7, m
        137    3.578E+01                                 F               0         Blade 1 Y translation displacement, node 7, m
        138   -5.908E+01                                 F               0         Blade 1 Z translation displacement, node 7, m
        139    1.620E+01                                 F               0         Blade 1 X translation displacement, node 8, m
        140    3.918E+01                                 F               0         Blade 1 Y translation displacement, node 8, m
        141   -6.474E+01                                 F               0         Blade 1 Z translation displacement, node 8, m
        142    1.544E+01                                 F               0         Blade 1 X translation displacement, node 9, m
        143    4.257E+01                                 F               0         Blade 1 Y translation displacement, node 9, m
        144   -7.041E+01                                 F               0         Blade 1 Z translation displacement, node 9, m
        145    1.468E+01                                 F               0         Blade 1 X translation displacement, node 10, m
        146    4.596E+01                                 F               0         Blade 1 Y translation displacement, node 10, m
        147   -7.608E+01                                 F               0         Blade 1 Z translation displacement, node 10, m
        148    1.392E+01                                 F               0         Blade 1 X translation displacement, node 11, m
        149    4.936E+01                                 F               0         Blade 1 Y translation displacement, node 11, m
        150   -8.175E+01                                 F               0         Blade 1 Z translation displacement, node 11, m
        151    1.316E+01                                 F               0         Blade 1 X translation displacement, node 12, m
        152    5.275E+01                                 F               0         Blade 1 Y translation displacement, node 12, m
        153   -8.742E+01                                 F               0         Blade 1 Z translation displacement, node 12, m
        154    1.241E+01                                 F               0         Blade 1 X translation displacement, node 13, m
        155    5.614E+01                                 F               0         Blade 1 Y translation displacement, node 13, m
        156   -9.309E+01                                 F               0         Blade 1 Z translation displacement, node 13, m
        157    1.165E+01                                 F               0         Blade 1 X translation displacement, node 14, m
        158    5.954E+01                                 F               0         Blade 1 Y translation displacement, node 14, m
        159   -9.875E+01                                 F               0         Blade 1 Z translation displacement, node 14, m
        160    1.089E+01                                 F               0         Blade 1 X translation displacement, node 15, m
        161    6.293E+01                                 F               0         Blade 1 Y translation displacement, node 15, m
        162   -1.044E+02                                 F               0         Blade 1 Z translation displacement, node 15, m
        163    1.013E+01                                 F               0         Blade 1 X translation displacement, node 16, m
        164    6.632E+01                                 F               0         Blade 1 Y translation displacement, node 16, m
        165   -1.101E+02                                 F               0         Blade 1 Z translation displacement, node 16, m
        166    9.373E+00                                 F               0         Blade 1 X translation displacement, node 17, m
        167    6.972E+01                                 F               0         Blade 1 Y translation displacement, node 17, m
        168   -1.158E+02                                 F               0         Blade 1 Z translation displacement, node 17, m
        169    8.614E+00                                 F               0         Blade 1 X translation displacement, node 18, m
        170    7.311E+01                                 F               0         Blade 1 Y translation displacement, node 18, m
        171   -1.214E+02                                 F               0         Blade 1 Z translation displacement, node 18, m
        172    7.856E+00                                 F               0         Blade 1 X translation displacement, node 19, m
        173    7.650E+01                                 F               0         Blade 1 Y translation displacement, node 19, m
        174   -1.271E+02                                 F               0         Blade 1 Z translation displacement, node 19, m
        175    7.098E+00                                 F               0         Blade 1 X translation displacement, node 20, m
        176    7.990E+01                                 F               0         Blade 1 Y translation displacement, node 20, m
        177   -1.328E+02                                 F               0         Blade 1 Z translation displacement, node 20, m
        178    6.340E+00                                 F               0         Blade 1 X translation displacement, node 21, m
        179    8.329E+01                                 F               0         Blade 1 Y translation displacement, node 21, m
        180   -1.384E+02                                 F               0         Blade 1 Z translation displacement, node 21, m
        181    5.581E+00                                 F               0         Blade 1 X translation displacement, node 22, m
        182    8.668E+01                                 F               0         Blade 1 Y translation displacement, node 22, m
        183   -1.441E+02                                 F               0         Blade 1 Z translation displacement, node 22, m
        184    4.823E+00                                 F               0         Blade 1 X translation displacement, node 23, m
        185    9.008E+01                                 F               0         Blade 1 Y translation displacement, node 23, m
        186   -1.498E+02                                 F               0         Blade 1 Z translation displacement, node 23, m
        187    4.065E+00                                 F               0         Blade 1 X translation displacement, node 24, m
        188    9.347E+01                                 F               0         Blade 1 Y translation displacement, node 24, m
        189   -1.554E+02                                 F               0         Blade 1 Z translation displacement, node 24, m
        190    3.307E+00                                 F               0         Blade 1 X translation displacement, node 25, m
        191    9.686E+01                                 F               0         Blade 1 Y translation displacement, node 25, m
        192   -1.611E+02                                 F               0         Blade 1 Z translation displacement, node 25, m
        193    2.548E+00                                 F               0         Blade 1 X translation displacement, node 26, m
        194    1.003E+02                                 F               0         Blade 1 Y translation displacement, node 26, m
        195   -1.668E+02                                 F               0         Blade 1 Z translation displacement, node 26, m
        196    1.790E+00                                 F               0         Blade 1 X translation displacement, node 27, m
        197    1.037E+02                                 F               0         Blade 1 Y translation displacement, node 27, m
        198   -1.724E+02                                 F               0         Blade 1 Z translation displacement, node 27, m
        199    1.147E+00                                 F               0         Blade 1 X translation displacement, node 28, m
        200    1.065E+02                                 F               0         Blade 1 Y translation displacement, node 28, m
        201   -1.773E+02                                 F               0         Blade 1 Z translation displacement, node 28, m
        202    9.400E-01,  2.322E-01,  2.499E-01         F               0         Blade 1 X orientation angle, node 1, rad
        203    3.287E-01, -4.199E-01, -8.460E-01         F               0         Blade 1 Y orientation angle, node 1, rad
        204   -9.152E-02,  8.773E-01, -4.711E-01         F               0         Blade 1 Z orientation angle, node 1, rad
        205    9.400E-01,  2.322E-01,  2.499E-01         F               0         Blade 1 X orientation angle, node 2, rad
        206    3.287E-01, -4.199E-01, -8.460E-01         F               0         Blade 1 Y orientation angle, node 2, rad
        207   -9.152E-02,  8.773E-01, -4.711E-01         F               0         Blade 1 Z orientation angle, node 2, rad
        208    9.911E-01,  1.261E-01,  4.229E-02         F               0         Blade 1 X orientation angle, node 3, rad
        209    9.650E-02, -4.630E-01, -8.811E-01         F               0         Blade 1 Y orientation angle, node 3, rad
        210   -9.152E-02,  8.773E-01, -4.711E-01         F               0         Blade 1 Z orientation angle, node 3, rad
        211    9.943E-01,  1.064E-01,  5.052E-03         F               0         Blade 1 X orientation angle, node 4, rad
        212    5.457E-02, -4.679E-01, -8.821E-01         F               0         Blade 1 Y orientation angle, node 4, rad
        213   -9.152E-02,  8.773E-01, -4.711E-01         F               0         Blade 1 Z orientation angle, node 4, rad
        214    9.956E-01,  9.086E-02, -2.420E-02         F               0         Blade 1 X orientation angle, node 5, rad
        215    2.157E-02, -4.712E-01, -8.818E-01         F               0         Blade 1 Y orientation angle, node 5, rad
        216   -9.152E-02,  8.773E-01, -4.711E-01         F               0         Blade 1 Z orientation angle, node 5, rad
        217    9.958E-01,  7.833E-02, -4.758E-02         F               0         Blade 1 X orientation angle, node 6, rad
        218   -4.846E-03, -4.734E-01, -8.808E-01         F               0         Blade 1 Y orientation angle, node 6, rad
        219   -9.152E-02,  8.773E-01, -4.711E-01         F               0         Blade 1 Z orientation angle, node 6, rad
        220    9.954E-01,  6.798E-02, -6.678E-02         F               0         Blade 1 X orientation angle, node 7, rad
        221   -2.657E-02, -4.750E-01, -8.796E-01         F               0         Blade 1 Y orientation angle, node 7, rad
        222   -9.152E-02,  8.773E-01, -4.711E-01         F               0         Blade 1 Z orientation angle, node 7, rad
        223    9.948E-01,  5.935E-02, -8.273E-02         F               0         Blade 1 X orientation angle, node 8, rad
        224   -4.463E-02, -4.762E-01, -8.782E-01         F               0         Blade 1 Y orientation angle, node 8, rad
        225   -9.152E-02,  8.773E-01, -4.711E-01         F               0         Blade 1 Z orientation angle, node 8, rad
        226    9.940E-01,  5.203E-02, -9.621E-02         F               0         Blade 1 X orientation angle, node 9, rad
        227   -5.990E-02, -4.770E-01, -8.768E-01         F               0         Blade 1 Y orientation angle, node 9, rad