
Linearized model: Predictions were generated on 13-Feb-2024 at 12:12:09 using OpenFAST, compiled as a 64-bit application using single precision at commit v3.5.1
 linked with  NWTC Subroutine Library; ElastoDyn; InflowWind; AeroDyn; ServoDyn; HydroDyn; MAP++ (<1.20.10>, <Oct-20-2023>)

Description from the FAST input file: CCT-9 Campign 4 model. Input files to be run with OpenFAST 3.5.0. GitHub branch from Lu Wang (https://github.com/luwang00/openfast/tree/dev) compiled on March 7, 2023.

Simulation information:
   Simulation time:                   774.2000 s
   Rotor Speed:                         0.7924 rad/s
   Azimuth:                             2.9809 rad
   Wind Speed:                         24.0000 m/s
   Number of continuous states:         0
   Number of discrete states:           0
   Number of constraint states:         0
   Number of inputs:                   37
   Number of outputs:                   7
   Jacobians included in this file?    No

Order of inputs:
     Column   Operating Point                                                   Rotating Frame? Derivative Order Description
   ---------- ---------------                                                   --------------- ---------------- -----------
          1     6.82306051254E+000                                                     F               0         WAMIT X translation displacement, node 1, m
          2    -8.26601445675E-001                                                     F               0         WAMIT Y translation displacement, node 1, m
          3    -1.06449261308E-001                                                     F               0         WAMIT Z translation displacement, node 1, m
          4     9.95465934277E-001,  -6.68964348733E-003,  -9.48835164309E-002         F               0         WAMIT X orientation angle, node 1, rad
          5     1.18248444051E-002,   9.98489081860E-001,   5.36625683308E-002         F               0         WAMIT Y orientation angle, node 1, rad
          6     9.43811759353E-002,  -5.45412413776E-002,   9.94040966034E-001         F               0         WAMIT Z orientation angle, node 1, rad
          7     4.36690449715E-003                                                     F               0         WAMIT X translation velocity, node 1, m/s
          8     5.00966452819E-005                                                     F               0         WAMIT Y translation velocity, node 1, m/s
          9    -2.39550066181E-003                                                     F               0         WAMIT Z translation velocity, node 1, m/s
         10     4.85465170641E-005                                                     F               0         WAMIT X rotation velocity, node 1, rad/s
         11     2.49478820479E-004                                                     F               0         WAMIT Y rotation velocity, node 1, rad/s
         12     2.45904175245E-005                                                     F               0         WAMIT Z rotation velocity, node 1, rad/s
         13     9.40545753110E-004                                                     F               0         WAMIT X translation acceleration, node 1, m/s^2
         14     3.95501498133E-003                                                     F               0         WAMIT Y translation acceleration, node 1, m/s^2
         15    -1.39506184496E-003                                                     F               0         WAMIT Z translation acceleration, node 1, m/s^2
         16    -2.28208955377E-004                                                     F               0         WAMIT X rotation acceleration, node 1, rad/s^2
         17     2.64119771600E-005                                                     F               0         WAMIT Y rotation acceleration, node 1, rad/s^2
         18     9.01158728084E-006                                                     F               0         WAMIT Z rotation acceleration, node 1, rad/s^2
         19     6.82306051254E+000                                                     F               0         Platform-RefPt X translation displacement, node 1, m
         20    -8.26601445675E-001                                                     F               0         Platform-RefPt Y translation displacement, node 1, m
         21    -1.06449261308E-001                                                     F               0         Platform-RefPt Z translation displacement, node 1, m
         22     9.95465934277E-001,  -6.68964348733E-003,  -9.48835164309E-002         F               0         Platform-RefPt X orientation angle, node 1, rad
         23     1.18248444051E-002,   9.98489081860E-001,   5.36625683308E-002         F               0         Platform-RefPt Y orientation angle, node 1, rad
         24     9.43811759353E-002,  -5.45412413776E-002,   9.94040966034E-001         F               0         Platform-RefPt Z orientation angle, node 1, rad
         25     4.36690449715E-003                                                     F               0         Platform-RefPt X translation velocity, node 1, m/s
         26     5.00966452819E-005                                                     F               0         Platform-RefPt Y translation velocity, node 1, m/s
         27    -2.39550066181E-003                                                     F               0         Platform-RefPt Z translation velocity, node 1, m/s
         28     4.85465170641E-005                                                     F               0         Platform-RefPt X rotation velocity, node 1, rad/s
         29     2.49478820479E-004                                                     F               0         Platform-RefPt Y rotation velocity, node 1, rad/s
         30     2.45904175245E-005                                                     F               0         Platform-RefPt Z rotation velocity, node 1, rad/s
         31     9.40545753110E-004                                                     F               0         Platform-RefPt X translation acceleration, node 1, m/s^2
         32     3.95501498133E-003                                                     F               0         Platform-RefPt Y translation acceleration, node 1, m/s^2
         33    -1.39506184496E-003                                                     F               0         Platform-RefPt Z translation acceleration, node 1, m/s^2
         34    -2.28208955377E-004                                                     F               0         Platform-RefPt X rotation acceleration, node 1, rad/s^2
         35     2.64119771600E-005                                                     F               0         Platform-RefPt Y rotation acceleration, node 1, rad/s^2
         36     9.01158728084E-006                                                     F               0         Platform-RefPt Z rotation acceleration, node 1, rad/s^2
         37     0.00000000000E+000                                                     F               0         Extended input: wave elevation at platform ref point, m

Order of outputs:
        Row   Operating Point                                                   Rotating Frame? Derivative Order Description
   ---------- ---------------                                                   --------------- ---------------- -----------
          1     0.00000000000E+000                                                     F               0         Wave1Elev, (m)
          2    -5.37516562500E+004                                                     F               0         HydroFxi, (N)
          3    -1.46843154297E+004                                                     F               0         HydroFyi, (N)
          4     2.03836720000E+008                                                     F               0         HydroFzi, (N)
          5    -1.13980392000E+008                                                     F               0         HydroMxi, (N-m)
          6    -2.03442032000E+008                                                     F               0         HydroMyi, (N-m)
          7    -1.76596593750E+005                                                     F               0         HydroMzi, (N-m)


Linearized state matrices:

D: 7 x 37
     0.00000000000E+000   0.00000000000E+000   0.00000000000E+000   0.00000000000E+000   0.00000000000E+000   0.00000000000E+000   0.00000000000E+000   0.00000000000E+000   0.00000000000E+000   0.00000000000E+000   0.00000000000E+000   0.00000000000E+000   0.00000000000E+000   0.00000000000E+000   0.00000000000E+000   0.00000000000E+000   0.00000000000E+000   0.00000000000E+000   0.00000000000E+000   0.00000000000E+000   0.00000000000E+000   0.00000000000E+000   0.00000000000E+000   0.00000000000E+000   0.00000000000E+000   0.00000000000E+000   0.00000000000E+000   0.00000000000E+000   0.00000000000E+000   0.00000000000E+000   0.00000000000E+000   0.00000000000E+000   0.00000000000E+000   0.00000000000E+000   0.00000000000E+000   0.00000000000E+000   0.00000000000E+000
    -6.86001893231E+003   0.00000000000E+000   0.00000000000E+000   0.00000000000E+000   0.00000000000E+000   0.00000000000E+000  -2.82329125153E+005   0.00000000000E+000   0.00000000000E+000   0.00000000000E+000   0.00000000000E+000   0.00000000000E+000  -9.38083896931E+006   0.00000000000E+000   1.99671965511E+001   5.59529101142E-002   9.82680351759E+007   0.00000000000E+000   0.00000000000E+000   0.00000000000E+000   0.00000000000E+000   0.00000000000E+000   0.00000000000E+000   0.00000000000E+000   0.00000000000E+000   0.00000000000E+000   0.00000000000E+000   0.00000000000E+000   0.00000000000E+000   0.00000000000E+000   0.00000000000E+000   0.00000000000E+000   0.00000000000E+000   0.00000000000E+000   0.00000000000E+000   0.00000000000E+000   0.00000000000E+000
     0.00000000000E+000   0.00000000000E+000   0.00000000000E+000   0.00000000000E+000   0.00000000000E+000   0.00000000000E+000   0.00000000000E+000  -2.82173096459E+005   0.00000000000E+000   0.00000000000E+000   0.00000000000E+000   0.00000000000E+000   0.00000000000E+000  -9.38088910312E+006   0.00000000000E+000  -9.82662446828E+007  -1.39882275285E-002   1.78566718516E+003   0.00000000000E+000   0.00000000000E+000   0.00000000000E+000   0.00000000000E+000   0.00000000000E+000   0.00000000000E+000   0.00000000000E+000   0.00000000000E+000   0.00000000000E+000   0.00000000000E+000   0.00000000000E+000   0.00000000000E+000   0.00000000000E+000   0.00000000000E+000   0.00000000000E+000   0.00000000000E+000   0.00000000000E+000   0.00000000000E+000   0.00000000000E+000
     0.00000000000E+000   0.00000000000E+000  -4.39481570682E+006   0.00000000000E+000   3.66692991724E+003   0.00000000000E+000   0.00000000000E+000   0.00000000000E+000  -8.06659137797E+005   0.00000000000E+000   0.00000000000E+000   0.00000000000E+000   0.00000000000E+000   0.00000000000E+000  -2.41346206440E+007   0.00000000000E+000   1.76471002267E+004   0.00000000000E+000   0.00000000000E+000   0.00000000000E+000   0.00000000000E+000   0.00000000000E+000   0.00000000000E+000   0.00000000000E+000   0.00000000000E+000   0.00000000000E+000   0.00000000000E+000   0.00000000000E+000   0.00000000000E+000   0.00000000000E+000   0.00000000000E+000   0.00000000000E+000   0.00000000000E+000   0.00000000000E+000   0.00000000000E+000   0.00000000000E+000   0.00000000000E+000
     0.00000000000E+000   2.03836720235E+008   1.46349798927E+004  -2.13421486209E+009   0.00000000000E+000   8.88084589332E+004   0.00000000000E+000   0.00000000000E+000   0.00000000000E+000  -2.78327910455E+009   0.00000000000E+000   0.00000000000E+000   0.00000000000E+000  -9.82010097437E+007   0.00000000000E+000  -1.13246530020E+010   1.14591559914E+002   5.29413006802E+004   0.00000000000E+000  -2.03836720235E+008  -1.46349798927E+004   0.00000000000E+000   0.00000000000E+000   0.00000000000E+000   0.00000000000E+000   0.00000000000E+000   0.00000000000E+000   0.00000000000E+000   0.00000000000E+000   0.00000000000E+000   0.00000000000E+000   0.00000000000E+000   0.00000000000E+000   0.00000000000E+000   0.00000000000E+000   0.00000000000E+000   0.00000000000E+000
    -2.03836720235E+008   0.00000000000E+000  -4.96345179357E+004   0.00000000000E+000  -2.13398086613E+009   0.00000000000E+000   0.00000000000E+000   0.00000000000E+000   0.00000000000E+000   0.00000000000E+000  -2.78340240507E+009   0.00000000000E+000   9.82035962391E+007   0.00000000000E+000   1.93823447348E+004   2.29183119828E+002  -1.13240534590E+010   0.00000000000E+000   2.03836720235E+008   0.00000000000E+000   5.36288524925E+004   0.00000000000E+000   0.00000000000E+000   0.00000000000E+000   0.00000000000E+000   0.00000000000E+000   0.00000000000E+000   0.00000000000E+000   0.00000000000E+000   0.00000000000E+000   0.00000000000E+000   0.00000000000E+000   0.00000000000E+000   0.00000000000E+000   0.00000000000E+000   0.00000000000E+000   0.00000000000E+000
    -1.46843463482E+004   5.37516291695E+004   0.00000000000E+000   0.00000000000E+000   0.00000000000E+000   0.00000000000E+000   0.00000000000E+000   0.00000000000E+000   0.00000000000E+000   0.00000000000E+000   0.00000000000E+000  -2.51327526251E+009   0.00000000000E+000   1.55376442530E+003   0.00000000000E+000   4.40409831741E+004   0.00000000000E+000  -1.95913504720E+010   1.46843463482E+004  -5.37516291695E+004   0.00000000000E+000   0.00000000000E+000   0.00000000000E+000   0.00000000000E+000   0.00000000000E+000   0.00000000000E+000   0.00000000000E+000   0.00000000000E+000   0.00000000000E+000   0.00000000000E+000   0.00000000000E+000   0.00000000000E+000   0.00000000000E+000   0.00000000000E+000   0.00000000000E+000   0.00000000000E+000   0.00000000000E+000
