
Linearized model: Predictions were generated on 06-Feb-2024 at 10:15:48 using OpenFAST, compiled as a 64-bit application using single precision at commit v3.5.1
 linked with  NWTC Subroutine Library; ElastoDyn; InflowWind; AeroDyn; ServoDyn; HydroDyn; MAP++ (<1.20.10>, <Oct-20-2023>)

Description from the FAST input file: CCT-9 Campign 4 model. Input files to be run with OpenFAST 3.5.0. GitHub branch from Lu Wang (https://github.com/luwang00/openfast/tree/dev) compiled on March 7, 2023.

Simulation information:
   Simulation time:                  1000.7500 s
   Rotor Speed:                         1.0389 rad/s
   Azimuth:                             1.8291 rad
   Wind Speed:                         12.0000 m/s
   Number of continuous states:         0
   Number of discrete states:           0
   Number of constraint states:         0
   Number of inputs:                  303
   Number of outputs:                   1
   Jacobians included in this file?    No

Order of inputs:
     Column   Operating Point                     Rotating Frame? Derivative Order Description
   ---------- ---------------                     --------------- ---------------- -----------
          1   -1.080E+01                                 F               0         X-component position of node 1 (hub), m
          2    0.000E+00                                 F               0         Y-component position of node 1 (hub), m
          3    1.497E+02                                 F               0         Z-component position of node 1 (hub), m
          4    2.574E+01                                 F               0         X-component position of node 2 (blade 1, node 1), m
          5   -1.241E+01                                 F               0         Y-component position of node 2 (blade 1, node 1), m
          6    1.475E+02                                 F               0         Z-component position of node 2 (blade 1, node 1), m
          7    2.566E+01                                 F               0         X-component position of node 3 (blade 1, node 2), m
          8   -1.368E+01                                 F               0         Y-component position of node 3 (blade 1, node 2), m
          9    1.471E+02                                 F               0         Z-component position of node 3 (blade 1, node 2), m
         10    2.453E+01                                 F               0         X-component position of node 4 (blade 1, node 3), m
         11   -3.101E+01                                 F               0         Y-component position of node 4 (blade 1, node 3), m
         12    1.418E+02                                 F               0         Z-component position of node 4 (blade 1, node 3), m
         13    2.429E+01                                 F               0         X-component position of node 5 (blade 1, node 4), m
         14   -3.470E+01                                 F               0         Y-component position of node 5 (blade 1, node 4), m
         15    1.407E+02                                 F               0         Z-component position of node 5 (blade 1, node 4), m
         16    2.405E+01                                 F               0         X-component position of node 6 (blade 1, node 5), m
         17   -3.839E+01                                 F               0         Y-component position of node 6 (blade 1, node 5), m
         18    1.396E+02                                 F               0         Z-component position of node 6 (blade 1, node 5), m
         19    2.381E+01                                 F               0         X-component position of node 7 (blade 1, node 6), m
         20   -4.208E+01                                 F               0         Y-component position of node 7 (blade 1, node 6), m
         21    1.384E+02                                 F               0         Z-component position of node 7 (blade 1, node 6), m
         22    2.357E+01                                 F               0         X-component position of node 8 (blade 1, node 7), m
         23   -4.577E+01                                 F               0         Y-component position of node 8 (blade 1, node 7), m
         24    1.373E+02                                 F               0         Z-component position of node 8 (blade 1, node 7), m
         25    2.333E+01                                 F               0         X-component position of node 9 (blade 1, node 8), m
         26   -4.947E+01                                 F               0         Y-component position of node 9 (blade 1, node 8), m
         27    1.362E+02                                 F               0         Z-component position of node 9 (blade 1, node 8), m
         28    2.309E+01                                 F               0         X-component position of node 10 (blade 1, node 9), m
         29   -5.316E+01                                 F               0         Y-component position of node 10 (blade 1, node 9), m
         30    1.351E+02                                 F               0         Z-component position of node 10 (blade 1, node 9), m
         31    2.284E+01                                 F               0         X-component position of node 11 (blade 1, node 10), m
         32   -5.685E+01                                 F               0         Y-component position of node 11 (blade 1, node 10), m
         33    1.339E+02                                 F               0         Z-component position of node 11 (blade 1, node 10), m
         34    2.260E+01                                 F               0         X-component position of node 12 (blade 1, node 11), m
         35   -6.054E+01                                 F               0         Y-component position of node 12 (blade 1, node 11), m
         36    1.328E+02                                 F               0         Z-component position of node 12 (blade 1, node 11), m
         37    2.236E+01                                 F               0         X-component position of node 13 (blade 1, node 12), m
         38   -6.423E+01                                 F               0         Y-component position of node 13 (blade 1, node 12), m
         39    1.317E+02                                 F               0         Z-component position of node 13 (blade 1, node 12), m
         40    2.212E+01                                 F               0         X-component position of node 14 (blade 1, node 13), m
         41   -6.792E+01                                 F               0         Y-component position of node 14 (blade 1, node 13), m
         42    1.305E+02                                 F               0         Z-component position of node 14 (blade 1, node 13), m
         43    2.188E+01                                 F               0         X-component position of node 15 (blade 1, node 14), m
         44   -7.161E+01                                 F               0         Y-component position of node 15 (blade 1, node 14), m
         45    1.294E+02                                 F               0         Z-component position of node 15 (blade 1, node 14), m
         46    2.164E+01                                 F               0         X-component position of node 16 (blade 1, node 15), m
         47   -7.531E+01                                 F               0         Y-component position of node 16 (blade 1, node 15), m
         48    1.283E+02                                 F               0         Z-component position of node 16 (blade 1, node 15), m
         49    2.140E+01                                 F               0         X-component position of node 17 (blade 1, node 16), m
         50   -7.900E+01                                 F               0         Y-component position of node 17 (blade 1, node 16), m
         51    1.272E+02                                 F               0         Z-component position of node 17 (blade 1, node 16), m
         52    2.116E+01                                 F               0         X-component position of node 18 (blade 1, node 17), m
         53   -8.269E+01                                 F               0         Y-component position of node 18 (blade 1, node 17), m
         54    1.260E+02                                 F               0         Z-component position of node 18 (blade 1, node 17), m
         55    2.092E+01                                 F               0         X-component position of node 19 (blade 1, node 18), m
         56   -8.638E+01                                 F               0         Y-component position of node 19 (blade 1, node 18), m
         57    1.249E+02                                 F               0         Z-component position of node 19 (blade 1, node 18), m
         58    2.068E+01                                 F               0         X-component position of node 20 (blade 1, node 19), m
         59   -9.007E+01                                 F               0         Y-component position of node 20 (blade 1, node 19), m
         60    1.238E+02                                 F               0         Z-component position of node 20 (blade 1, node 19), m
         61    2.044E+01                                 F               0         X-component position of node 21 (blade 1, node 20), m
         62   -9.376E+01                                 F               0         Y-component position of node 21 (blade 1, node 20), m
         63    1.226E+02                                 F               0         Z-component position of node 21 (blade 1, node 20), m
         64    2.020E+01                                 F               0         X-component position of node 22 (blade 1, node 21), m
         65   -9.746E+01                                 F               0         Y-component position of node 22 (blade 1, node 21), m
         66    1.215E+02                                 F               0         Z-component position of node 22 (blade 1, node 21), m
         67    1.996E+01                                 F               0         X-component position of node 23 (blade 1, node 22), m
         68   -1.011E+02                                 F               0         Y-component position of node 23 (blade 1, node 22), m
         69    1.204E+02                                 F               0         Z-component position of node 23 (blade 1, node 22), m
         70    1.972E+01                                 F               0         X-component position of node 24 (blade 1, node 23), m
         71   -1.048E+02                                 F               0         Y-component position of node 24 (blade 1, node 23), m
         72    1.193E+02                                 F               0         Z-component position of node 24 (blade 1, node 23), m
         73    1.947E+01                                 F               0         X-component position of node 25 (blade 1, node 24), m
         74   -1.085E+02                                 F               0         Y-component position of node 25 (blade 1, node 24), m
         75    1.181E+02                                 F               0         Z-component position of node 25 (blade 1, node 24), m
         76    1.923E+01                                 F               0         X-component position of node 26 (blade 1, node 25), m
         77   -1.122E+02                                 F               0         Y-component position of node 26 (blade 1, node 25), m
         78    1.170E+02                                 F               0         Z-component position of node 26 (blade 1, node 25), m
         79    1.899E+01                                 F               0         X-component position of node 27 (blade 1, node 26), m
         80   -1.159E+02                                 F               0         Y-component position of node 27 (blade 1, node 26), m
         81    1.159E+02                                 F               0         Z-component position of node 27 (blade 1, node 26), m
         82    1.875E+01                                 F               0         X-component position of node 28 (blade 1, node 27), m
         83   -1.196E+02                                 F               0         Y-component position of node 28 (blade 1, node 27), m
         84    1.147E+02                                 F               0         Z-component position of node 28 (blade 1, node 27), m
         85    1.855E+01                                 F               0         X-component position of node 29 (blade 1, node 28), m
         86   -1.227E+02                                 F               0         Y-component position of node 29 (blade 1, node 28), m
         87    1.138E+02                                 F               0         Z-component position of node 29 (blade 1, node 28), m
         88    2.500E+01                                 F               0         X-component position of node 30 (blade 2, node 1), m
         89   -3.048E+00                                 F               0         Y-component position of node 30 (blade 2, node 1), m
         90    1.455E+02                                 F               0         Z-component position of node 30 (blade 2, node 1), m
         91    2.473E+01                                 F               0         X-component position of node 31 (blade 2, node 2), m
         92   -2.067E+00                                 F               0         Y-component position of node 31 (blade 2, node 2), m
         93    1.447E+02                                 F               0         Z-component position of node 31 (blade 2, node 2), m
         94    2.116E+01                                 F               0         X-component position of node 32 (blade 2, node 3), m
         95    1.128E+01                                 F               0         Y-component position of node 32 (blade 2, node 3), m
         96    1.329E+02                                 F               0         Z-component position of node 32 (blade 2, node 3), m
         97    2.040E+01                                 F               0         X-component position of node 33 (blade 2, node 4), m
         98    1.412E+01                                 F               0         Y-component position of node 33 (blade 2, node 4), m
         99    1.304E+02                                 F               0         Z-component position of node 33 (blade 2, node 4), m
        100    1.964E+01                                 F               0         X-component position of node 34 (blade 2, node 5), m
        101    1.696E+01                                 F               0         Y-component position of node 34 (blade 2, node 5), m
        102    1.279E+02                                 F               0         Z-component position of node 34 (blade 2, node 5), m
        103    1.888E+01                                 F               0         X-component position of node 35 (blade 2, node 6), m
        104    1.981E+01                                 F               0         Y-component position of node 35 (blade 2, node 6), m
        105    1.254E+02                                 F               0         Z-component position of node 35 (blade 2, node 6), m
        106    1.812E+01                                 F               0         X-component position of node 36 (blade 2, node 7), m
        107    2.265E+01                                 F               0         Y-component position of node 36 (blade 2, node 7), m
        108    1.229E+02                                 F               0         Z-component position of node 36 (blade 2, node 7), m
        109    1.736E+01                                 F               0         X-component position of node 37 (blade 2, node 8), m
        110    2.549E+01                                 F               0         Y-component position of node 37 (blade 2, node 8), m
        111    1.203E+02                                 F               0         Z-component position of node 37 (blade 2, node 8), m
        112    1.660E+01                                 F               0         X-component position of node 38 (blade 2, node 9), m
        113    2.833E+01                                 F               0         Y-component position of node 38 (blade 2, node 9), m
        114    1.178E+02                                 F               0         Z-component position of node 38 (blade 2, node 9), m
        115    1.584E+01                                 F               0         X-component position of node 39 (blade 2, node 10), m
        116    3.118E+01                                 F               0         Y-component position of node 39 (blade 2, node 10), m
        117    1.153E+02                                 F               0         Z-component position of node 39 (blade 2, node 10), m
        118    1.508E+01                                 F               0         X-component position of node 40 (blade 2, node 11), m
        119    3.402E+01                                 F               0         Y-component position of node 40 (blade 2, node 11), m
        120    1.128E+02                                 F               0         Z-component position of node 40 (blade 2, node 11), m
        121    1.432E+01                                 F               0         X-component position of node 41 (blade 2, node 12), m
        122    3.686E+01                                 F               0         Y-component position of node 41 (blade 2, node 12), m
        123    1.103E+02                                 F               0         Z-component position of node 41 (blade 2, node 12), m
        124    1.356E+01                                 F               0         X-component position of node 42 (blade 2, node 13), m
        125    3.971E+01                                 F               0         Y-component position of node 42 (blade 2, node 13), m
        126    1.078E+02                                 F               0         Z-component position of node 42 (blade 2, node 13), m
        127    1.280E+01                                 F               0         X-component position of node 43 (blade 2, node 14), m
        128    4.255E+01                                 F               0         Y-component position of node 43 (blade 2, node 14), m
        129    1.053E+02                                 F               0         Z-component position of node 43 (blade 2, node 14), m
        130    1.204E+01                                 F               0         X-component position of node 44 (blade 2, node 15), m
        131    4.539E+01                                 F               0         Y-component position of node 44 (blade 2, node 15), m
        132    1.028E+02                                 F               0         Z-component position of node 44 (blade 2, node 15), m
        133    1.128E+01                                 F               0         X-component position of node 45 (blade 2, node 16), m
        134    4.823E+01                                 F               0         Y-component position of node 45 (blade 2, node 16), m
        135    1.003E+02                                 F               0         Z-component position of node 45 (blade 2, node 16), m
        136    1.052E+01                                 F               0         X-component position of node 46 (blade 2, node 17), m
        137    5.108E+01                                 F               0         Y-component position of node 46 (blade 2, node 17), m
        138    9.776E+01                                 F               0         Z-component position of node 46 (blade 2, node 17), m
        139    9.755E+00                                 F               0         X-component position of node 47 (blade 2, node 18), m
        140    5.392E+01                                 F               0         Y-component position of node 47 (blade 2, node 18), m
        141    9.525E+01                                 F               0         Z-component position of node 47 (blade 2, node 18), m
        142    8.994E+00                                 F               0         X-component position of node 48 (blade 2, node 19), m
        143    5.676E+01                                 F               0         Y-component position of node 48 (blade 2, node 19), m
        144    9.274E+01                                 F               0         Z-component position of node 48 (blade 2, node 19), m
        145    8.233E+00                                 F               0         X-component position of node 49 (blade 2, node 20), m
        146    5.961E+01                                 F               0         Y-component position of node 49 (blade 2, node 20), m
        147    9.023E+01                                 F               0         Z-component position of node 49 (blade 2, node 20), m
        148    7.473E+00                                 F               0         X-component position of node 50 (blade 2, node 21), m
        149    6.245E+01                                 F               0         Y-component position of node 50 (blade 2, node 21), m
        150    8.772E+01                                 F               0         Z-component position of node 50 (blade 2, node 21), m
        151    6.712E+00                                 F               0         X-component position of node 51 (blade 2, node 22), m
        152    6.529E+01                                 F               0         Y-component position of node 51 (blade 2, node 22), m
        153    8.521E+01                                 F               0         Z-component position of node 51 (blade 2, node 22), m
        154    5.951E+00                                 F               0         X-component position of node 52 (blade 2, node 23), m
        155    6.814E+01                                 F               0         Y-component position of node 52 (blade 2, node 23), m
        156    8.270E+01                                 F               0         Z-component position of node 52 (blade 2, node 23), m
        157    5.191E+00                                 F               0         X-component position of node 53 (blade 2, node 24), m
        158    7.098E+01                                 F               0         Y-component position of node 53 (blade 2, node 24), m
        159    8.019E+01                                 F               0         Z-component position of node 53 (blade 2, node 24), m
        160    4.430E+00                                 F               0         X-component position of node 54 (blade 2, node 25), m
        161    7.382E+01                                 F               0         Y-component position of node 54 (blade 2, node 25), m
        162    7.768E+01                                 F               0         Z-component position of node 54 (blade 2, node 25), m
        163    3.669E+00                                 F               0         X-component position of node 55 (blade 2, node 26), m
        164    7.666E+01                                 F               0         Y-component position of node 55 (blade 2, node 26), m
        165    7.517E+01                                 F               0         Z-component position of node 55 (blade 2, node 26), m
        166    2.909E+00                                 F               0         X-component position of node 56 (blade 2, node 27), m
        167    7.951E+01                                 F               0         Y-component position of node 56 (blade 2, node 27), m
        168    7.266E+01                                 F               0         Z-component position of node 56 (blade 2, node 27), m
        169    2.264E+00                                 F               0         X-component position of node 57 (blade 2, node 28), m
        170    8.192E+01                                 F               0         Y-component position of node 57 (blade 2, node 28), m
        171    7.053E+01                                 F               0         Z-component position of node 57 (blade 2, node 28), m
        172    2.752E+01                                 F               0         X-component position of node 58 (blade 3, node 1), m
        173   -5.905E+00                                 F               0         Y-component position of node 58 (blade 3, node 1), m
        174    1.543E+02                                 F               0         Z-component position of node 58 (blade 3, node 1), m
        175    2.787E+01                                 F               0         X-component position of node 59 (blade 3, node 2), m
        176   -5.612E+00                                 F               0         Y-component position of node 59 (blade 3, node 2), m
        177    1.556E+02                                 F               0         Z-component position of node 59 (blade 3, node 2), m
        178    3.257E+01                                 F               0         X-component position of node 60 (blade 3, node 3), m
        179   -1.629E+00                                 F               0         Y-component position of node 60 (blade 3, node 3), m
        180    1.727E+02                                 F               0         Z-component position of node 60 (blade 3, node 3), m
        181    3.357E+01                                 F               0         X-component position of node 61 (blade 3, node 4), m
        182   -7.809E-01                                 F               0         Y-component position of node 61 (blade 3, node 4), m
        183    1.763E+02                                 F               0         Z-component position of node 61 (blade 3, node 4), m
        184    3.457E+01                                 F               0         X-component position of node 62 (blade 3, node 5), m
        185    6.781E-02                                 F               0         Y-component position of node 62 (blade 3, node 5), m
        186    1.799E+02                                 F               0         Z-component position of node 62 (blade 3, node 5), m
        187    3.557E+01                                 F               0         X-component position of node 63 (blade 3, node 6), m
        188    9.163E-01                                 F               0         Y-component position of node 63 (blade 3, node 6), m
        189    1.836E+02                                 F               0         Z-component position of node 63 (blade 3, node 6), m
        190    3.657E+01                                 F               0         X-component position of node 64 (blade 3, node 7), m
        191    1.765E+00                                 F               0         Y-component position of node 64 (blade 3, node 7), m
        192    1.872E+02                                 F               0         Z-component position of node 64 (blade 3, node 7), m
        193    3.757E+01                                 F               0         X-component position of node 65 (blade 3, node 8), m
        194    2.614E+00                                 F               0         Y-component position of node 65 (blade 3, node 8), m
        195    1.909E+02                                 F               0         Z-component position of node 65 (blade 3, node 8), m
        196    3.857E+01                                 F               0         X-component position of node 66 (blade 3, node 9), m
        197    3.462E+00                                 F               0         Y-component position of node 66 (blade 3, node 9), m
        198    1.945E+02                                 F               0         Z-component position of node 66 (blade 3, node 9), m
        199    3.958E+01                                 F               0         X-component position of node 67 (blade 3, node 10), m
        200    4.311E+00                                 F               0         Y-component position of node 67 (blade 3, node 10), m
        201    1.981E+02                                 F               0         Z-component position of node 67 (blade 3, node 10), m
        202    4.058E+01                                 F               0         X-component position of node 68 (blade 3, node 11), m
        203    5.159E+00                                 F               0         Y-component position of node 68 (blade 3, node 11), m
        204    2.018E+02                                 F               0         Z-component position of node 68 (blade 3, node 11), m
        205    4.158E+01                                 F               0         X-component position of node 69 (blade 3, node 12), m
        206    6.008E+00                                 F               0         Y-component position of node 69 (blade 3, node 12), m
        207    2.054E+02                                 F               0         Z-component position of node 69 (blade 3, node 12), m
        208    4.258E+01                                 F               0         X-component position of node 70 (blade 3, node 13), m
        209    6.856E+00                                 F               0         Y-component position of node 70 (blade 3, node 13), m
        210    2.091E+02                                 F               0         Z-component position of node 70 (blade 3, node 13), m
        211    4.358E+01                                 F               0         X-component position of node 71 (blade 3, node 14), m