
Linearized model: Predictions were generated on 30-Jan-2024 at 18:20:32 using OpenFAST, compiled as a 64-bit application using single precision at commit v3.5.1
 linked with  NWTC Subroutine Library; ElastoDyn; InflowWind; AeroDyn; ServoDyn; HydroDyn; MAP++ (<1.20.10>, <Oct-20-2023>)

Description from the FAST input file: CCT-9 Campign 4 model. Input files to be run with OpenFAST 3.5.0. GitHub branch from Lu Wang (https://github.com/luwang00/openfast/tree/dev) compiled on March 7, 2023.

Simulation information:
   Simulation time:                   500.2500 s
   Rotor Speed:                         0.8797 rad/s
   Azimuth:                             5.3799 rad
   Wind Speed:                         10.0000 m/s
   Number of continuous states:        14
   Number of discrete states:           0
   Number of constraint states:         0
   Number of inputs:                 1890
   Number of outputs:                  19
   Jacobians included in this file?    No

Order of continuous states:
   Row/Column Operating Point                     Rotating Frame? Derivative Order Description
   ---------- ---------------                     --------------- ---------------- -----------
          1    8.886E+00                                 F               2         Platform horizontal surge translation DOF (internal DOF index = DOF_Sg), m
          2   -3.637E-01                                 F               2         Platform horizontal sway translation DOF (internal DOF index = DOF_Sw), m
          3   -1.720E-01                                 F               2         Platform vertical heave translation DOF (internal DOF index = DOF_Hv), m
          4    4.248E-02                                 F               2         Platform roll tilt rotation DOF (internal DOF index = DOF_R), rad
          5    1.154E-01                                 F               2         Platform pitch tilt rotation DOF (internal DOF index = DOF_P), rad
          6    7.570E-03                                 F               2         Platform yaw rotation DOF (internal DOF index = DOF_Y), rad
          7    3.809E+00                                 F               2         Variable speed generator DOF (internal DOF index = DOF_GeAz), rad
          8   -2.708E-03                                 F               2         First time derivative of Platform horizontal surge translation DOF (internal DOF index = DOF_Sg), m/s
          9    2.369E-03                                 F               2         First time derivative of Platform horizontal sway translation DOF (internal DOF index = DOF_Sw), m/s
         10   -1.595E-03                                 F               2         First time derivative of Platform vertical heave translation DOF (internal DOF index = DOF_Hv), m/s
         11   -1.845E-04                                 F               2         First time derivative of Platform roll tilt rotation DOF (internal DOF index = DOF_R), rad/s
         12    1.408E-05                                 F               2         First time derivative of Platform pitch tilt rotation DOF (internal DOF index = DOF_P), rad/s
         13    1.931E-05                                 F               2         First time derivative of Platform yaw rotation DOF (internal DOF index = DOF_Y), rad/s
         14    8.797E-01                                 F               2         First time derivative of Variable speed generator DOF (internal DOF index = DOF_GeAz), rad/s

Order of continuous state derivatives:
   Row/Column Operating Point                     Rotating Frame? Derivative Order Description
   ---------- ---------------                     --------------- ---------------- -----------
          1   -2.708E-03                                 F               2         First time derivative of Platform horizontal surge translation DOF (internal DOF index = DOF_Sg), m/s
          2    2.369E-03                                 F               2         First time derivative of Platform horizontal sway translation DOF (internal DOF index = DOF_Sw), m/s
          3   -1.595E-03                                 F               2         First time derivative of Platform vertical heave translation DOF (internal DOF index = DOF_Hv), m/s
          4   -1.845E-04                                 F               2         First time derivative of Platform roll tilt rotation DOF (internal DOF index = DOF_R), rad/s
          5    1.408E-05                                 F               2         First time derivative of Platform pitch tilt rotation DOF (internal DOF index = DOF_P), rad/s
          6    1.931E-05                                 F               2         First time derivative of Platform yaw rotation DOF (internal DOF index = DOF_Y), rad/s
          7    8.797E-01                                 F               2         First time derivative of Variable speed generator DOF (internal DOF index = DOF_GeAz), rad/s
          8   -4.143E-04                                 F               2         First time derivative of First time derivative of Platform horizontal surge translation DOF (internal DOF index = DOF_Sg), m/s/s
          9    7.237E-05                                 F               2         First time derivative of First time derivative of Platform horizontal sway translation DOF (internal DOF index = DOF_Sw), m/s/s
         10    1.263E-03                                 F               2         First time derivative of First time derivative of Platform vertical heave translation DOF (internal DOF index = DOF_Hv), m/s/s
         11    4.969E-05                                 F               2         First time derivative of First time derivative of Platform roll tilt rotation DOF (internal DOF index = DOF_R), rad/s/s
         12    1.349E-06                                 F               2         First time derivative of First time derivative of Platform pitch tilt rotation DOF (internal DOF index = DOF_P), rad/s/s
         13   -2.290E-05                                 F               2         First time derivative of First time derivative of Platform yaw rotation DOF (internal DOF index = DOF_Y), rad/s/s
         14   -2.055E-04                                 F               2         First time derivative of First time derivative of Variable speed generator DOF (internal DOF index = DOF_GeAz), rad/s/s

Order of inputs:
     Column   Operating Point                     Rotating Frame? Derivative Order Description
   ---------- ---------------                     --------------- ---------------- -----------
          1    5.896E+01                                 F               0         Blade 1 X force, node 1, N
          2    2.928E+01                                 F               0         Blade 1 Y force, node 1, N
          3   -4.702E+01                                 F               0         Blade 1 Z force, node 1, N
          4    2.762E+02                                 F               0         Blade 1 X force, node 2, N
          5    6.282E+01                                 F               0         Blade 1 Y force, node 2, N
          6   -1.316E+02                                 F               0         Blade 1 Z force, node 2, N
          7    3.897E+02                                 F               0         Blade 1 X force, node 3, N
          8    2.774E+01                                 F               0         Blade 1 Y force, node 3, N
          9   -1.131E+02                                 F               0         Blade 1 Z force, node 3, N
         10    5.327E+02                                 F               0         Blade 1 X force, node 4, N
         11   -3.884E-01                                 F               0         Blade 1 Y force, node 4, N
         12   -1.090E+02                                 F               0         Blade 1 Z force, node 4, N
         13    6.757E+02                                 F               0         Blade 1 X force, node 5, N
         14   -2.851E+01                                 F               0         Blade 1 Y force, node 5, N
         15   -1.048E+02                                 F               0         Blade 1 Z force, node 5, N
         16    8.187E+02                                 F               0         Blade 1 X force, node 6, N
         17   -5.664E+01                                 F               0         Blade 1 Y force, node 6, N
         18   -1.007E+02                                 F               0         Blade 1 Z force, node 6, N
         19    9.617E+02                                 F               0         Blade 1 X force, node 7, N
         20   -8.476E+01                                 F               0         Blade 1 Y force, node 7, N
         21   -9.652E+01                                 F               0         Blade 1 Z force, node 7, N
         22    1.105E+03                                 F               0         Blade 1 X force, node 8, N
         23   -1.129E+02                                 F               0         Blade 1 Y force, node 8, N
         24   -9.237E+01                                 F               0         Blade 1 Z force, node 8, N
         25    1.248E+03                                 F               0         Blade 1 X force, node 9, N
         26   -1.410E+02                                 F               0         Blade 1 Y force, node 9, N
         27   -8.822E+01                                 F               0         Blade 1 Z force, node 9, N
         28    1.391E+03                                 F               0         Blade 1 X force, node 10, N
         29   -1.691E+02                                 F               0         Blade 1 Y force, node 10, N
         30   -8.407E+01                                 F               0         Blade 1 Z force, node 10, N
         31    1.534E+03                                 F               0         Blade 1 X force, node 11, N
         32   -1.973E+02                                 F               0         Blade 1 Y force, node 11, N
         33   -7.992E+01                                 F               0         Blade 1 Z force, node 11, N
         34    1.677E+03                                 F               0         Blade 1 X force, node 12, N
         35   -2.254E+02                                 F               0         Blade 1 Y force, node 12, N
         36   -7.576E+01                                 F               0         Blade 1 Z force, node 12, N
         37    1.820E+03                                 F               0         Blade 1 X force, node 13, N
         38   -2.535E+02                                 F               0         Blade 1 Y force, node 13, N
         39   -7.161E+01                                 F               0         Blade 1 Z force, node 13, N
         40    1.963E+03                                 F               0         Blade 1 X force, node 14, N
         41   -2.816E+02                                 F               0         Blade 1 Y force, node 14, N
         42   -6.746E+01                                 F               0         Blade 1 Z force, node 14, N
         43    2.106E+03                                 F               0         Blade 1 X force, node 15, N
         44   -3.098E+02                                 F               0         Blade 1 Y force, node 15, N
         45   -6.331E+01                                 F               0         Blade 1 Z force, node 15, N
         46    2.249E+03                                 F               0         Blade 1 X force, node 16, N
         47   -3.379E+02                                 F               0         Blade 1 Y force, node 16, N
         48   -5.915E+01                                 F               0         Blade 1 Z force, node 16, N
         49    2.773E+03                                 F               0         Blade 1 X force, node 17, N
         50   -4.225E+02                                 F               0         Blade 1 Y force, node 17, N
         51   -6.609E+01                                 F               0         Blade 1 Z force, node 17, N
         52    2.118E+03                                 F               0         Blade 1 X force, node 18, N
         53   -3.098E+02                                 F               0         Blade 1 Y force, node 18, N
         54   -6.583E+01                                 F               0         Blade 1 Z force, node 18, N
         55    2.599E+03                                 F               0         Blade 1 X force, node 19, N
         56   -3.592E+02                                 F               0         Blade 1 Y force, node 19, N
         57   -1.057E+02                                 F               0         Blade 1 Z force, node 19, N
         58    2.215E+03                                 F               0         Blade 1 X force, node 20, N
         59   -2.897E+02                                 F               0         Blade 1 Y force, node 20, N
         60   -1.097E+02                                 F               0         Blade 1 Z force, node 20, N
         61    3.270E+03                                 F               0         Blade 1 X force, node 21, N
         62   -4.007E+02                                 F               0         Blade 1 Y force, node 21, N
         63   -1.942E+02                                 F               0         Blade 1 Z force, node 21, N
         64    2.886E+03                                 F               0         Blade 1 X force, node 22, N
         65   -3.311E+02                                 F               0         Blade 1 Y force, node 22, N
         66   -1.982E+02                                 F               0         Blade 1 Z force, node 22, N
         67    2.964E+03                                 F               0         Blade 1 X force, node 23, N
         68   -3.198E+02                                 F               0         Blade 1 Y force, node 23, N
         69   -2.276E+02                                 F               0         Blade 1 Z force, node 23, N
         70    3.094E+03                                 F               0         Blade 1 X force, node 24, N
         71   -3.141E+02                                 F               0         Blade 1 Y force, node 24, N
         72   -2.613E+02                                 F               0         Blade 1 Z force, node 24, N
         73    3.171E+03                                 F               0         Blade 1 X force, node 25, N
         74   -3.028E+02                                 F               0         Blade 1 Y force, node 25, N
         75   -2.905E+02                                 F               0         Blade 1 Z force, node 25, N
         76    3.265E+03                                 F               0         Blade 1 X force, node 26, N
         77   -2.934E+02                                 F               0         Blade 1 Y force, node 26, N
         78   -3.211E+02                                 F               0         Blade 1 Z force, node 26, N
         79    3.913E+03                                 F               0         Blade 1 X force, node 27, N
         80   -3.294E+02                                 F               0         Blade 1 Y force, node 27, N
         81   -4.112E+02                                 F               0         Blade 1 Z force, node 27, N
         82    2.901E+03                                 F               0         Blade 1 X force, node 28, N
         83   -2.290E+02                                 F               0         Blade 1 Y force, node 28, N
         84   -3.230E+02                                 F               0         Blade 1 Z force, node 28, N
         85    3.549E+03                                 F               0         Blade 1 X force, node 29, N
         86   -2.652E+02                                 F               0         Blade 1 Y force, node 29, N
         87   -4.130E+02                                 F               0         Blade 1 Z force, node 29, N
         88    3.019E+03                                 F               0         Blade 1 X force, node 30, N
         89   -2.135E+02                                 F               0         Blade 1 Y force, node 30, N
         90   -3.658E+02                                 F               0         Blade 1 Z force, node 30, N
         91    4.362E+03                                 F               0         Blade 1 X force, node 31, N
         92   -2.888E+02                                 F               0         Blade 1 Y force, node 31, N
         93   -5.518E+02                                 F               0         Blade 1 Z force, node 31, N
         94    3.832E+03                                 F               0         Blade 1 X force, node 32, N
         95   -2.371E+02                                 F               0         Blade 1 Y force, node 32, N
         96   -5.045E+02                                 F               0         Blade 1 Z force, node 32, N
         97    3.925E+03                                 F               0         Blade 1 X force, node 33, N
         98   -2.278E+02                                 F               0         Blade 1 Y force, node 33, N
         99   -5.349E+02                                 F               0         Blade 1 Z force, node 33, N
        100    4.020E+03                                 F               0         Blade 1 X force, node 34, N
        101   -2.185E+02                                 F               0         Blade 1 Y force, node 34, N
        102   -5.654E+02                                 F               0         Blade 1 Z force, node 34, N
        103    4.115E+03                                 F               0         Blade 1 X force, node 35, N
        104   -2.093E+02                                 F               0         Blade 1 Y force, node 35, N
        105   -5.959E+02                                 F               0         Blade 1 Z force, node 35, N
        106    4.208E+03                                 F               0         Blade 1 X force, node 36, N
        107   -2.000E+02                                 F               0         Blade 1 Y force, node 36, N
        108   -6.262E+02                                 F               0         Blade 1 Z force, node 36, N
        109    5.034E+03                                 F               0         Blade 1 X force, node 37, N
        110   -2.222E+02                                 F               0         Blade 1 Y force, node 37, N
        111   -7.694E+02                                 F               0         Blade 1 Z force, node 37, N
        112    3.666E+03                                 F               0         Blade 1 X force, node 38, N
        113   -1.502E+02                                 F               0         Blade 1 Y force, node 38, N
        114   -5.743E+02                                 F               0         Blade 1 Z force, node 38, N
        115    4.493E+03                                 F               0         Blade 1 X force, node 39, N
        116   -1.725E+02                                 F               0         Blade 1 Y force, node 39, N
        117   -7.175E+02                                 F               0         Blade 1 Z force, node 39, N
        118    3.831E+03                                 F               0         Blade 1 X force, node 40, N
        119   -1.375E+02                                 F               0         Blade 1 Y force, node 40, N
        120   -6.232E+02                                 F               0         Blade 1 Z force, node 40, N
        121    5.441E+03                                 F               0         Blade 1 X force, node 41, N
        122   -1.800E+02                                 F               0         Blade 1 Y force, node 41, N
        123   -9.032E+02                                 F               0         Blade 1 Z force, node 41, N
        124    4.778E+03                                 F               0         Blade 1 X force, node 42, N
        125   -1.451E+02                                 F               0         Blade 1 Y force, node 42, N
        126   -8.087E+02                                 F               0         Blade 1 Z force, node 42, N
        127    4.872E+03                                 F               0         Blade 1 X force, node 43, N
        128   -1.359E+02                                 F               0         Blade 1 Y force, node 43, N
        129   -8.389E+02                                 F               0         Blade 1 Z force, node 43, N
        130    4.992E+03                                 F               0         Blade 1 X force, node 44, N
        131   -1.274E+02                                 F               0         Blade 1 Y force, node 44, N
        132   -8.738E+02                                 F               0         Blade 1 Z force, node 44, N
        133    5.034E+03                                 F               0         Blade 1 X force, node 45, N
        134   -1.170E+02                                 F               0         Blade 1 Y force, node 45, N
        135   -8.948E+02                                 F               0         Blade 1 Z force, node 45, N
        136    5.155E+03                                 F               0         Blade 1 X force, node 46, N
        137   -1.086E+02                                 F               0         Blade 1 Y force, node 46, N
        138   -9.296E+02                                 F               0         Blade 1 Z force, node 46, N
        139    6.170E+03                                 F               0         Blade 1 X force, node 47, N
        140   -1.161E+02                                 F               0         Blade 1 Y force, node 47, N
        141   -1.129E+03                                 F               0         Blade 1 Z force, node 47, N
        142    4.423E+03                                 F               0         Blade 1 X force, node 48, N
        143   -7.380E+01                                 F               0         Blade 1 Y force, node 48, N
        144   -8.207E+02                                 F               0         Blade 1 Z force, node 48, N
        145    5.438E+03                                 F               0         Blade 1 X force, node 49, N
        146   -8.133E+01                                 F               0         Blade 1 Y force, node 49, N
        147   -1.020E+03                                 F               0         Blade 1 Z force, node 49, N
        148    4.652E+03                                 F               0         Blade 1 X force, node 50, N
        149   -6.168E+01                                 F               0         Blade 1 Y force, node 50, N
        150   -8.823E+02                                 F               0         Blade 1 Z force, node 50, N
        151    6.506E+03                                 F               0         Blade 1 X force, node 51, N
        152   -7.380E+01                                 F               0         Blade 1 Y force, node 51, N
        153   -1.249E+03                                 F               0         Blade 1 Z force, node 51, N
        154    5.722E+03                                 F               0         Blade 1 X force, node 52, N
        155   -5.426E+01                                 F               0         Blade 1 Y force, node 52, N
        156   -1.111E+03                                 F               0         Blade 1 Z force, node 52, N
        157    5.818E+03                                 F               0         Blade 1 X force, node 53, N
        158   -4.529E+01                                 F               0         Blade 1 Y force, node 53, N
        159   -1.141E+03                                 F               0         Blade 1 Z force, node 53, N
        160    5.979E+03                                 F               0         Blade 1 X force, node 54, N
        161   -3.669E+01                                 F               0         Blade 1 Y force, node 54, N
        162   -1.185E+03                                 F               0         Blade 1 Z force, node 54, N
        163    5.944E+03                                 F               0         Blade 1 X force, node 55, N
        164   -2.700E+01                                 F               0         Blade 1 Y force, node 55, N
        165   -1.189E+03                                 F               0         Blade 1 Z force, node 55, N
        166    6.105E+03                                 F               0         Blade 1 X force, node 56, N
        167   -1.840E+01                                 F               0         Blade 1 Y force, node 56, N
        168   -1.232E+03                                 F               0         Blade 1 Z force, node 56, N
        169    7.322E+03                                 F               0         Blade 1 X force, node 57, N
        170   -1.041E+01                                 F               0         Blade 1 Y force, node 57, N
        171   -1.492E+03                                 F               0         Blade 1 Z force, node 57, N
        172    5.174E+03                                 F               0         Blade 1 X force, node 58, N
        173    4.783E-01                                 F               0         Blade 1 Y force, node 58, N
        174   -1.064E+03                                 F               0         Blade 1 Z force, node 58, N
        175    6.391E+03                                 F               0         Blade 1 X force, node 59, N
        176    8.458E+00                                 F               0         Blade 1 Y force, node 59, N
        177   -1.323E+03                                 F               0         Blade 1 Z force, node 59, N
        178    5.494E+03                                 F               0         Blade 1 X force, node 60, N
        179    1.399E+01                                 F               0         Blade 1 Y force, node 60, N
        180   -1.145E+03                                 F               0         Blade 1 Z force, node 60, N
        181    7.575E+03                                 F               0         Blade 1 X force, node 61, N
        182    2.978E+01                                 F               0         Blade 1 Y force, node 61, N
        183   -1.592E+03                                 F               0         Blade 1 Z force, node 61, N
        184    6.676E+03                                 F               0         Blade 1 X force, node 62, N
        185    3.535E+01                                 F               0         Blade 1 Y force, node 62, N
        186   -1.414E+03                                 F               0         Blade 1 Z force, node 62, N
        187    6.769E+03                                 F               0         Blade 1 X force, node 63, N
        188    4.434E+01                                 F               0         Blade 1 Y force, node 63, N
        189   -1.444E+03                                 F               0         Blade 1 Z force, node 63, N
        190    6.979E+03                                 F               0         Blade 1 X force, node 64, N
        191    5.426E+01                                 F               0         Blade 1 Y force, node 64, N
        192   -1.498E+03                                 F               0         Blade 1 Z force, node 64, N
        193    6.845E+03                                 F               0         Blade 1 X force, node 65, N
        194    6.128E+01                                 F               0         Blade 1 Y force, node 65, N
        195   -1.479E+03                                 F               0         Blade 1 Z force, node 65, N
        196    7.057E+03                                 F               0         Blade 1 X force, node 66, N
        197    7.110E+01                                 F               0         Blade 1 Y force, node 66, N
        198   -1.535E+03                                 F               0         Blade 1 Z force, node 66, N
        199    8.487E+03                                 F               0         Blade 1 X force, node 67, N
        200    9.554E+01                                 F               0         Blade 1 Y force, node 67, N
        201   -1.858E+03                                 F               0         Blade 1 Z force, node 67, N
        202    5.918E+03                                 F               0         Blade 1 X force, node 68, N
        203    7.334E+01                                 F               0         Blade 1 Y force, node 68, N
        204   -1.303E+03                                 F               0         Blade 1 Z force, node 68, N
        205    7.346E+03                                 F               0         Blade 1 X force, node 69, N
        206    9.784E+01                                 F               0         Blade 1 Y force, node 69, N
        207   -1.626E+03                                 F               0         Blade 1 Z force, node 69, N
        208    6.347E+03                                 F               0         Blade 1 X force, node 70, N
        209    9.043E+01                                 F               0         Blade 1 Y force, node 70, N
        210   -1.412E+03                                 F               0         Blade 1 Z force, node 70, N