
Linearized model: Predictions were generated on 12-Feb-2024 at 18:31:58 using OpenFAST, compiled as a 64-bit application using single precision at commit v3.5.1
 linked with  NWTC Subroutine Library; ElastoDyn; InflowWind; AeroDyn; ServoDyn; HydroDyn; MAP++ (<1.20.10>, <Oct-20-2023>)

Description from the FAST input file: CCT-9 Campign 4 model. Input files to be run with OpenFAST 3.5.0. GitHub branch from Lu Wang (https://github.com/luwang00/openfast/tree/dev) compiled on March 7, 2023.

Simulation information:
   Simulation time:                  1003.9750 s
   Rotor Speed:                         1.0468 rad/s
   Azimuth:                             3.8261 rad
   Wind Speed:                         12.0000 m/s
   Number of continuous states:         0
   Number of discrete states:           0
   Number of constraint states:         0
   Number of inputs:                 1746
   Number of outputs:                   4
   Jacobians included in this file?    No

Order of inputs:
     Column   Operating Point                     Rotating Frame? Derivative Order Description
   ---------- ---------------                     --------------- ---------------- -----------
          1    1.518E+01                                 F               0         Tower X translation displacement, node 1, m
          2   -1.060E+00                                 F               0         Tower Y translation displacement, node 1, m
          3   -4.758E-01                                 F               0         Tower Z translation displacement, node 1, m
          4    1.704E+01                                 F               0         Tower X translation displacement, node 2, m
          5   -1.619E+00                                 F               0         Tower Y translation displacement, node 2, m
          6   -6.298E-01                                 F               0         Tower Z translation displacement, node 2, m
          7    1.891E+01                                 F               0         Tower X translation displacement, node 3, m
          8   -2.177E+00                                 F               0         Tower Y translation displacement, node 3, m
          9   -7.837E-01                                 F               0         Tower Z translation displacement, node 3, m
         10    2.077E+01                                 F               0         Tower X translation displacement, node 4, m
         11   -2.736E+00                                 F               0         Tower Y translation displacement, node 4, m
         12   -9.377E-01                                 F               0         Tower Z translation displacement, node 4, m
         13    2.263E+01                                 F               0         Tower X translation displacement, node 5, m
         14   -3.295E+00                                 F               0         Tower Y translation displacement, node 5, m
         15   -1.092E+00                                 F               0         Tower Z translation displacement, node 5, m
         16    2.449E+01                                 F               0         Tower X translation displacement, node 6, m
         17   -3.854E+00                                 F               0         Tower Y translation displacement, node 6, m
         18   -1.246E+00                                 F               0         Tower Z translation displacement, node 6, m
         19    2.635E+01                                 F               0         Tower X translation displacement, node 7, m
         20   -4.413E+00                                 F               0         Tower Y translation displacement, node 7, m
         21   -1.400E+00                                 F               0         Tower Z translation displacement, node 7, m
         22    2.822E+01                                 F               0         Tower X translation displacement, node 8, m
         23   -4.972E+00                                 F               0         Tower Y translation displacement, node 8, m
         24   -1.554E+00                                 F               0         Tower Z translation displacement, node 8, m
         25    3.008E+01                                 F               0         Tower X translation displacement, node 9, m
         26   -5.531E+00                                 F               0         Tower Y translation displacement, node 9, m
         27   -1.707E+00                                 F               0         Tower Z translation displacement, node 9, m
         28    3.194E+01                                 F               0         Tower X translation displacement, node 10, m
         29   -6.090E+00                                 F               0         Tower Y translation displacement, node 10, m
         30   -1.861E+00                                 F               0         Tower Z translation displacement, node 10, m
         31    3.380E+01                                 F               0         Tower X translation displacement, node 11, m
         32   -6.649E+00                                 F               0         Tower Y translation displacement, node 11, m
         33   -2.015E+00                                 F               0         Tower Z translation displacement, node 11, m
         34    9.885E-01,  1.482E-02, -1.502E-01         F               0         Tower X orientation angle, node 1, rad
         35   -7.838E-03,  9.989E-01,  4.695E-02         F               0         Tower Y orientation angle, node 1, rad
         36    1.507E-01, -4.524E-02,  9.875E-01         F               0         Tower Z orientation angle, node 1, rad
         37    9.885E-01,  1.482E-02, -1.502E-01         F               0         Tower X orientation angle, node 2, rad
         38   -7.838E-03,  9.989E-01,  4.695E-02         F               0         Tower Y orientation angle, node 2, rad
         39    1.507E-01, -4.524E-02,  9.875E-01         F               0         Tower Z orientation angle, node 2, rad
         40    9.885E-01,  1.482E-02, -1.502E-01         F               0         Tower X orientation angle, node 3, rad
         41   -7.838E-03,  9.989E-01,  4.695E-02         F               0         Tower Y orientation angle, node 3, rad
         42    1.507E-01, -4.524E-02,  9.875E-01         F               0         Tower Z orientation angle, node 3, rad
         43    9.885E-01,  1.482E-02, -1.502E-01         F               0         Tower X orientation angle, node 4, rad
         44   -7.838E-03,  9.989E-01,  4.695E-02         F               0         Tower Y orientation angle, node 4, rad
         45    1.507E-01, -4.524E-02,  9.875E-01         F               0         Tower Z orientation angle, node 4, rad
         46    9.885E-01,  1.482E-02, -1.502E-01         F               0         Tower X orientation angle, node 5, rad
         47   -7.838E-03,  9.989E-01,  4.695E-02         F               0         Tower Y orientation angle, node 5, rad
         48    1.507E-01, -4.524E-02,  9.875E-01         F               0         Tower Z orientation angle, node 5, rad
         49    9.885E-01,  1.482E-02, -1.502E-01         F               0         Tower X orientation angle, node 6, rad
         50   -7.838E-03,  9.989E-01,  4.695E-02         F               0         Tower Y orientation angle, node 6, rad
         51    1.507E-01, -4.524E-02,  9.875E-01         F               0         Tower Z orientation angle, node 6, rad
         52    9.885E-01,  1.482E-02, -1.502E-01         F               0         Tower X orientation angle, node 7, rad
         53   -7.838E-03,  9.989E-01,  4.695E-02         F               0         Tower Y orientation angle, node 7, rad
         54    1.507E-01, -4.524E-02,  9.875E-01         F               0         Tower Z orientation angle, node 7, rad
         55    9.885E-01,  1.482E-02, -1.502E-01         F               0         Tower X orientation angle, node 8, rad
         56   -7.838E-03,  9.989E-01,  4.695E-02         F               0         Tower Y orientation angle, node 8, rad
         57    1.507E-01, -4.524E-02,  9.875E-01         F               0         Tower Z orientation angle, node 8, rad
         58    9.885E-01,  1.482E-02, -1.502E-01         F               0         Tower X orientation angle, node 9, rad
         59   -7.838E-03,  9.989E-01,  4.695E-02         F               0         Tower Y orientation angle, node 9, rad
         60    1.507E-01, -4.524E-02,  9.875E-01         F               0         Tower Z orientation angle, node 9, rad
         61    9.885E-01,  1.482E-02, -1.502E-01         F               0         Tower X orientation angle, node 10, rad
         62   -7.838E-03,  9.989E-01,  4.695E-02         F               0         Tower Y orientation angle, node 10, rad
         63    1.507E-01, -4.524E-02,  9.875E-01         F               0         Tower Z orientation angle, node 10, rad
         64    9.885E-01,  1.482E-02, -1.502E-01         F               0         Tower X orientation angle, node 11, rad
         65   -7.838E-03,  9.989E-01,  4.695E-02         F               0         Tower Y orientation angle, node 11, rad
         66    1.507E-01, -4.524E-02,  9.875E-01         F               0         Tower Z orientation angle, node 11, rad
         67   -3.965E-04                                 F               0         Tower X translation velocity, node 1, m/s
         68    1.240E-03                                 F               0         Tower Y translation velocity, node 1, m/s
         69    2.916E-03                                 F               0         Tower Z translation velocity, node 1, m/s
         70   -7.507E-04                                 F               0         Tower X translation velocity, node 2, m/s
         71    2.241E-03                                 F               0         Tower Y translation velocity, node 2, m/s
         72    3.016E-03                                 F               0         Tower Z translation velocity, node 2, m/s
         73   -1.105E-03                                 F               0         Tower X translation velocity, node 3, m/s
         74    3.242E-03                                 F               0         Tower Y translation velocity, node 3, m/s
         75    3.116E-03                                 F               0         Tower Z translation velocity, node 3, m/s
         76   -1.459E-03                                 F               0         Tower X translation velocity, node 4, m/s
         77    4.243E-03                                 F               0         Tower Y translation velocity, node 4, m/s
         78    3.216E-03                                 F               0         Tower Z translation velocity, node 4, m/s
         79   -1.813E-03                                 F               0         Tower X translation velocity, node 5, m/s
         80    5.244E-03                                 F               0         Tower Y translation velocity, node 5, m/s
         81    3.316E-03                                 F               0         Tower Z translation velocity, node 5, m/s
         82   -2.167E-03                                 F               0         Tower X translation velocity, node 6, m/s
         83    6.245E-03                                 F               0         Tower Y translation velocity, node 6, m/s
         84    3.416E-03                                 F               0         Tower Z translation velocity, node 6, m/s
         85   -2.522E-03                                 F               0         Tower X translation velocity, node 7, m/s
         86    7.245E-03                                 F               0         Tower Y translation velocity, node 7, m/s
         87    3.516E-03                                 F               0         Tower Z translation velocity, node 7, m/s
         88   -2.876E-03                                 F               0         Tower X translation velocity, node 8, m/s
         89    8.246E-03                                 F               0         Tower Y translation velocity, node 8, m/s
         90    3.616E-03                                 F               0         Tower Z translation velocity, node 8, m/s
         91   -3.230E-03                                 F               0         Tower X translation velocity, node 9, m/s
         92    9.247E-03                                 F               0         Tower Y translation velocity, node 9, m/s
         93    3.715E-03                                 F               0         Tower Z translation velocity, node 9, m/s
         94   -3.584E-03                                 F               0         Tower X translation velocity, node 10, m/s
         95    1.025E-02                                 F               0         Tower Y translation velocity, node 10, m/s
         96    3.815E-03                                 F               0         Tower Z translation velocity, node 10, m/s
         97   -3.938E-03                                 F               0         Tower X translation velocity, node 11, m/s
         98    1.125E-02                                 F               0         Tower Y translation velocity, node 11, m/s
         99    3.915E-03                                 F               0         Tower Z translation velocity, node 11, m/s
        100    3.511E+01                                 F               0         Hub X translation displacement, node 1, m
        101   -7.164E+00                                 F               0         Hub Y translation displacement, node 1, m
        102   -4.909E-01                                 F               0         Hub Z translation displacement, node 1, m
        103    9.674E-01,  1.947E-02, -2.526E-01         F               0         Hub X orientation angle, node 1, rad
        104   -1.540E-01, -7.464E-01, -6.474E-01         F               0         Hub Y orientation angle, node 1, rad
        105   -2.012E-01,  6.652E-01, -7.191E-01         F               0         Hub Z orientation angle, node 1, rad
        106    1.013E+00                                 F               0         Hub X rotation velocity, node 1, rad/s
        107    2.034E-02                                 F               0         Hub Y rotation velocity, node 1, rad/s
        108   -2.643E-01                                 F               0         Hub Z rotation velocity, node 1, rad/s
        109    9.715E-01,  4.160E-02, -2.333E-01         F               0         Blade root 1 X orientation angle, node 1, rad
        110   -1.253E-01, -7.455E-01, -6.546E-01         F               0         Blade root 1 Y orientation angle, node 1, rad
        111   -2.012E-01,  6.652E-01, -7.191E-01         F               0         Blade root 1 Z orientation angle, node 1, rad
        112    9.698E-01, -8.704E-03, -2.436E-01         F               0         Blade root 2 X orientation angle, node 1, rad
        113   -6.844E-02,  9.494E-01, -3.064E-01         F               0         Blade root 2 Y orientation angle, node 1, rad
        114    2.340E-01,  3.138E-01,  9.202E-01         F               0         Blade root 2 Z orientation angle, node 1, rad
        115    9.595E-01,  2.548E-02, -2.806E-01         F               0         Blade root 3 X orientation angle, node 1, rad
        116    2.798E-01, -2.022E-01,  9.385E-01         F               0         Blade root 3 Y orientation angle, node 1, rad
        117   -3.283E-02, -9.790E-01, -2.011E-01         F               0         Blade root 3 Z orientation angle, node 1, rad
        118    3.342E+01                                 F               0         Blade 1 X translation displacement, node 1, m
        119   -3.479E+00                                 F               0         Blade 1 Y translation displacement, node 1, m
        120   -9.984E+00                                 F               0         Blade 1 Z translation displacement, node 1, m
        121    3.301E+01                                 F               0         Blade 1 X translation displacement, node 2, m
        122   -2.591E+00                                 F               0         Blade 1 Y translation displacement, node 2, m
        123   -1.227E+01                                 F               0         Blade 1 Z translation displacement, node 2, m
        124    2.746E+01                                 F               0         Blade 1 X translation displacement, node 3, m
        125    9.484E+00                                 F               0         Blade 1 Y translation displacement, node 3, m
        126   -4.338E+01                                 F               0         Blade 1 Z translation displacement, node 3, m
        127    2.628E+01                                 F               0         Blade 1 X translation displacement, node 4, m
        128    1.206E+01                                 F               0         Blade 1 Y translation displacement, node 4, m
        129   -5.000E+01                                 F               0         Blade 1 Z translation displacement, node 4, m
        130    2.510E+01                                 F               0         Blade 1 X translation displacement, node 5, m
        131    1.463E+01                                 F               0         Blade 1 Y translation displacement, node 5, m
        132   -5.663E+01                                 F               0         Blade 1 Z translation displacement, node 5, m
        133    2.391E+01                                 F               0         Blade 1 X translation displacement, node 6, m
        134    1.720E+01                                 F               0         Blade 1 Y translation displacement, node 6, m
        135   -6.326E+01                                 F               0         Blade 1 Z translation displacement, node 6, m
        136    2.273E+01                                 F               0         Blade 1 X translation displacement, node 7, m
        137    1.978E+01                                 F               0         Blade 1 Y translation displacement, node 7, m
        138   -6.989E+01                                 F               0         Blade 1 Z translation displacement, node 7, m
        139    2.155E+01                                 F               0         Blade 1 X translation displacement, node 8, m
        140    2.235E+01                                 F               0         Blade 1 Y translation displacement, node 8, m
        141   -7.652E+01                                 F               0         Blade 1 Z translation displacement, node 8, m
        142    2.037E+01                                 F               0         Blade 1 X translation displacement, node 9, m
        143    2.492E+01                                 F               0         Blade 1 Y translation displacement, node 9, m
        144   -8.314E+01                                 F               0         Blade 1 Z translation displacement, node 9, m
        145    1.918E+01                                 F               0         Blade 1 X translation displacement, node 10, m
        146    2.749E+01                                 F               0         Blade 1 Y translation displacement, node 10, m
        147   -8.977E+01                                 F               0         Blade 1 Z translation displacement, node 10, m
        148    1.800E+01                                 F               0         Blade 1 X translation displacement, node 11, m
        149    3.007E+01                                 F               0         Blade 1 Y translation displacement, node 11, m
        150   -9.640E+01                                 F               0         Blade 1 Z translation displacement, node 11, m
        151    1.682E+01                                 F               0         Blade 1 X translation displacement, node 12, m
        152    3.264E+01                                 F               0         Blade 1 Y translation displacement, node 12, m
        153   -1.030E+02                                 F               0         Blade 1 Z translation displacement, node 12, m
        154    1.564E+01                                 F               0         Blade 1 X translation displacement, node 13, m
        155    3.521E+01                                 F               0         Blade 1 Y translation displacement, node 13, m
        156   -1.097E+02                                 F               0         Blade 1 Z translation displacement, node 13, m
        157    1.446E+01                                 F               0         Blade 1 X translation displacement, node 14, m
        158    3.778E+01                                 F               0         Blade 1 Y translation displacement, node 14, m
        159   -1.163E+02                                 F               0         Blade 1 Z translation displacement, node 14, m
        160    1.327E+01                                 F               0         Blade 1 X translation displacement, node 15, m
        161    4.036E+01                                 F               0         Blade 1 Y translation displacement, node 15, m
        162   -1.229E+02                                 F               0         Blade 1 Z translation displacement, node 15, m
        163    1.209E+01                                 F               0         Blade 1 X translation displacement, node 16, m
        164    4.293E+01                                 F               0         Blade 1 Y translation displacement, node 16, m
        165   -1.295E+02                                 F               0         Blade 1 Z translation displacement, node 16, m
        166    1.091E+01                                 F               0         Blade 1 X translation displacement, node 17, m
        167    4.550E+01                                 F               0         Blade 1 Y translation displacement, node 17, m
        168   -1.362E+02                                 F               0         Blade 1 Z translation displacement, node 17, m
        169    9.726E+00                                 F               0         Blade 1 X translation displacement, node 18, m
        170    4.808E+01                                 F               0         Blade 1 Y translation displacement, node 18, m
        171   -1.428E+02                                 F               0         Blade 1 Z translation displacement, node 18, m
        172    8.544E+00                                 F               0         Blade 1 X translation displacement, node 19, m
        173    5.065E+01                                 F               0         Blade 1 Y translation displacement, node 19, m
        174   -1.494E+02                                 F               0         Blade 1 Z translation displacement, node 19, m
        175    7.361E+00                                 F               0         Blade 1 X translation displacement, node 20, m
        176    5.322E+01                                 F               0         Blade 1 Y translation displacement, node 20, m
        177   -1.560E+02                                 F               0         Blade 1 Z translation displacement, node 20, m
        178    6.179E+00                                 F               0         Blade 1 X translation displacement, node 21, m
        179    5.579E+01                                 F               0         Blade 1 Y translation displacement, node 21, m
        180   -1.627E+02                                 F               0         Blade 1 Z translation displacement, node 21, m
        181    4.997E+00                                 F               0         Blade 1 X translation displacement, node 22, m
        182    5.837E+01                                 F               0         Blade 1 Y translation displacement, node 22, m
        183   -1.693E+02                                 F               0         Blade 1 Z translation displacement, node 22, m
        184    3.814E+00                                 F               0         Blade 1 X translation displacement, node 23, m
        185    6.094E+01                                 F               0         Blade 1 Y translation displacement, node 23, m
        186   -1.759E+02                                 F               0         Blade 1 Z translation displacement, node 23, m
        187    2.632E+00                                 F               0         Blade 1 X translation displacement, node 24, m
        188    6.351E+01                                 F               0         Blade 1 Y translation displacement, node 24, m
        189   -1.826E+02                                 F               0         Blade 1 Z translation displacement, node 24, m
        190    1.450E+00                                 F               0         Blade 1 X translation displacement, node 25, m
        191    6.609E+01                                 F               0         Blade 1 Y translation displacement, node 25, m
        192   -1.892E+02                                 F               0         Blade 1 Z translation displacement, node 25, m
        193    2.675E-01                                 F               0         Blade 1 X translation displacement, node 26, m
        194    6.866E+01                                 F               0         Blade 1 Y translation displacement, node 26, m
        195   -1.958E+02                                 F               0         Blade 1 Z translation displacement, node 26, m
        196   -9.147E-01                                 F               0         Blade 1 X translation displacement, node 27, m
        197    7.123E+01                                 F               0         Blade 1 Y translation displacement, node 27, m
        198   -2.024E+02                                 F               0         Blade 1 Z translation displacement, node 27, m
        199   -1.917E+00                                 F               0         Blade 1 X translation displacement, node 28, m
        200    7.341E+01                                 F               0         Blade 1 Y translation displacement, node 28, m
        201   -2.081E+02                                 F               0         Blade 1 Z translation displacement, node 28, m
        202    9.218E-01,  3.770E-01,  9.089E-02         F               0         Blade 1 X orientation angle, node 1, rad
        203    3.315E-01, -6.445E-01, -6.890E-01         F               0         Blade 1 Y orientation angle, node 1, rad
        204   -2.012E-01,  6.652E-01, -7.191E-01         F               0         Blade 1 Z orientation angle, node 1, rad
        205    9.218E-01,  3.770E-01,  9.089E-02         F               0         Blade 1 X orientation angle, node 2, rad
        206    3.315E-01, -6.445E-01, -6.890E-01         F               0         Blade 1 Y orientation angle, node 2, rad
        207   -2.012E-01,  6.652E-01, -7.191E-01         F               0         Blade 1 Z orientation angle, node 2, rad
        208    9.741E-01,  2.135E-01, -7.500E-02         F               0         Blade 1 X orientation angle, node 3, rad
        209    1.036E-01, -7.155E-01, -6.909E-01         F               0         Blade 1 Y orientation angle, node 3, rad
        210   -2.012E-01,  6.652E-01, -7.191E-01         F               0         Blade 1 Z orientation angle, node 3, rad
        211    9.776E-01,  1.831E-01, -1.041E-01         F               0         Blade 1 X orientation angle, node 4, rad
        212    6.240E-02, -7.239E-01, -6.871E-01         F               0         Blade 1 Y orientation angle, node 4, rad
        213   -2.012E-01,  6.652E-01, -7.191E-01         F               0         Blade 1 Z orientation angle, node 4, rad
        214    9.791E-01,  1.590E-01, -1.268E-01         F               0         Blade 1 X orientation angle, node 5, rad
        215    2.996E-02, -7.295E-01, -6.833E-01         F               0         Blade 1 Y orientation angle, node 5, rad
        216   -2.012E-01,  6.652E-01, -7.191E-01         F               0         Blade 1 Z orientation angle, node 5, rad
        217    9.796E-01,  1.396E-01, -1.449E-01         F               0         Blade 1 X orientation angle, node 6, rad
        218    3.973E-03, -7.335E-01, -6.797E-01         F               0         Blade 1 Y orientation angle, node 6, rad
        219   -2.012E-01,  6.652E-01, -7.191E-01         F               0         Blade 1 Z orientation angle, node 6, rad
        220    9.794E-01,  1.235E-01, -1.597E-01         F               0         Blade 1 X orientation angle, node 7, rad
        221   -1.740E-02, -7.364E-01, -6.763E-01         F               0         Blade 1 Y orientation angle, node 7, rad
        222   -2.012E-01,  6.652E-01, -7.191E-01         F               0         Blade 1 Z orientation angle, node 7, rad
        223    9.789E-01,  1.102E-01, -1.719E-01         F               0         Blade 1 X orientation angle, node 8, rad
        224   -3.517E-02, -7.385E-01, -6.733E-01         F               0         Blade 1 Y orientation angle, node 8, rad
        225   -2.012E-01,  6.652E-01, -7.191E-01         F               0         Blade 1 Z orientation angle, node 8, rad
        226    9.783E-01,  9.880E-02, -1.823E-01         F               0         Blade 1 X orientation angle, node 9, rad
        227   -5.020E-02, -7.401E-01, -6.706E-01         F               0         Blade 1 Y orientation angle, node 9, rad