
Linearized model: Predictions were generated on 30-Jan-2024 at 18:20:32 using OpenFAST, compiled as a 64-bit application using single precision at commit v3.5.1
 linked with  NWTC Subroutine Library; ElastoDyn; InflowWind; AeroDyn; ServoDyn; HydroDyn; MAP++ (<1.20.10>, <Oct-20-2023>)

Description from the FAST input file: CCT-9 Campign 4 model. Input files to be run with OpenFAST 3.5.0. GitHub branch from Lu Wang (https://github.com/luwang00/openfast/tree/dev) compiled on March 7, 2023.

Simulation information:
   Simulation time:                   501.7500 s
   Rotor Speed:                         0.8794 rad/s
   Azimuth:                             0.4161 rad
   Wind Speed:                         10.0000 m/s
   Number of continuous states:         0
   Number of discrete states:           0
   Number of constraint states:         0
   Number of inputs:                 1746
   Number of outputs:                   4
   Jacobians included in this file?    No

Order of inputs:
     Column   Operating Point                     Rotating Frame? Derivative Order Description
   ---------- ---------------                     --------------- ---------------- -----------
          1    1.099E+01                                 F               0         Tower X translation displacement, node 1, m
          2   -1.121E+00                                 F               0         Tower Y translation displacement, node 1, m
          3   -3.098E-01                                 F               0         Tower Z translation displacement, node 1, m
          4    1.240E+01                                 F               0         Tower X translation displacement, node 2, m
          5   -1.634E+00                                 F               0         Tower Y translation displacement, node 2, m
          6   -4.021E-01                                 F               0         Tower Z translation displacement, node 2, m
          7    1.382E+01                                 F               0         Tower X translation displacement, node 3, m
          8   -2.147E+00                                 F               0         Tower Y translation displacement, node 3, m
          9   -4.944E-01                                 F               0         Tower Z translation displacement, node 3, m
         10    1.524E+01                                 F               0         Tower X translation displacement, node 4, m
         11   -2.660E+00                                 F               0         Tower Y translation displacement, node 4, m
         12   -5.867E-01                                 F               0         Tower Z translation displacement, node 4, m
         13    1.665E+01                                 F               0         Tower X translation displacement, node 5, m
         14   -3.173E+00                                 F               0         Tower Y translation displacement, node 5, m
         15   -6.790E-01                                 F               0         Tower Z translation displacement, node 5, m
         16    1.807E+01                                 F               0         Tower X translation displacement, node 6, m
         17   -3.686E+00                                 F               0         Tower Y translation displacement, node 6, m
         18   -7.713E-01                                 F               0         Tower Z translation displacement, node 6, m
         19    1.949E+01                                 F               0         Tower X translation displacement, node 7, m
         20   -4.198E+00                                 F               0         Tower Y translation displacement, node 7, m
         21   -8.636E-01                                 F               0         Tower Z translation displacement, node 7, m
         22    2.091E+01                                 F               0         Tower X translation displacement, node 8, m
         23   -4.711E+00                                 F               0         Tower Y translation displacement, node 8, m
         24   -9.559E-01                                 F               0         Tower Z translation displacement, node 8, m
         25    2.232E+01                                 F               0         Tower X translation displacement, node 9, m
         26   -5.224E+00                                 F               0         Tower Y translation displacement, node 9, m
         27   -1.048E+00                                 F               0         Tower Z translation displacement, node 9, m
         28    2.374E+01                                 F               0         Tower X translation displacement, node 10, m
         29   -5.737E+00                                 F               0         Tower Y translation displacement, node 10, m
         30   -1.140E+00                                 F               0         Tower Z translation displacement, node 10, m
         31    2.516E+01                                 F               0         Tower X translation displacement, node 11, m
         32   -6.250E+00                                 F               0         Tower Y translation displacement, node 11, m
         33   -1.233E+00                                 F               0         Tower Z translation displacement, node 11, m
         34    9.934E-01,  9.930E-03, -1.144E-01         F               0         Tower X orientation angle, node 1, rad
         35   -5.107E-03,  9.991E-01,  4.237E-02         F               0         Tower Y orientation angle, node 1, rad
         36    1.147E-01, -4.151E-02,  9.925E-01         F               0         Tower Z orientation angle, node 1, rad
         37    9.934E-01,  9.930E-03, -1.144E-01         F               0         Tower X orientation angle, node 2, rad
         38   -5.107E-03,  9.991E-01,  4.237E-02         F               0         Tower Y orientation angle, node 2, rad
         39    1.147E-01, -4.151E-02,  9.925E-01         F               0         Tower Z orientation angle, node 2, rad
         40    9.934E-01,  9.930E-03, -1.144E-01         F               0         Tower X orientation angle, node 3, rad
         41   -5.107E-03,  9.991E-01,  4.237E-02         F               0         Tower Y orientation angle, node 3, rad
         42    1.147E-01, -4.151E-02,  9.925E-01         F               0         Tower Z orientation angle, node 3, rad
         43    9.934E-01,  9.930E-03, -1.144E-01         F               0         Tower X orientation angle, node 4, rad
         44   -5.107E-03,  9.991E-01,  4.237E-02         F               0         Tower Y orientation angle, node 4, rad
         45    1.147E-01, -4.151E-02,  9.925E-01         F               0         Tower Z orientation angle, node 4, rad
         46    9.934E-01,  9.930E-03, -1.144E-01         F               0         Tower X orientation angle, node 5, rad
         47   -5.107E-03,  9.991E-01,  4.237E-02         F               0         Tower Y orientation angle, node 5, rad
         48    1.147E-01, -4.151E-02,  9.925E-01         F               0         Tower Z orientation angle, node 5, rad
         49    9.934E-01,  9.930E-03, -1.144E-01         F               0         Tower X orientation angle, node 6, rad
         50   -5.107E-03,  9.991E-01,  4.237E-02         F               0         Tower Y orientation angle, node 6, rad
         51    1.147E-01, -4.151E-02,  9.925E-01         F               0         Tower Z orientation angle, node 6, rad
         52    9.934E-01,  9.930E-03, -1.144E-01         F               0         Tower X orientation angle, node 7, rad
         53   -5.107E-03,  9.991E-01,  4.237E-02         F               0         Tower Y orientation angle, node 7, rad
         54    1.147E-01, -4.151E-02,  9.925E-01         F               0         Tower Z orientation angle, node 7, rad
         55    9.934E-01,  9.930E-03, -1.144E-01         F               0         Tower X orientation angle, node 8, rad
         56   -5.107E-03,  9.991E-01,  4.237E-02         F               0         Tower Y orientation angle, node 8, rad
         57    1.147E-01, -4.151E-02,  9.925E-01         F               0         Tower Z orientation angle, node 8, rad
         58    9.934E-01,  9.930E-03, -1.144E-01         F               0         Tower X orientation angle, node 9, rad
         59   -5.107E-03,  9.991E-01,  4.237E-02         F               0         Tower Y orientation angle, node 9, rad
         60    1.147E-01, -4.151E-02,  9.925E-01         F               0         Tower Z orientation angle, node 9, rad
         61    9.934E-01,  9.930E-03, -1.144E-01         F               0         Tower X orientation angle, node 10, rad
         62   -5.107E-03,  9.991E-01,  4.237E-02         F               0         Tower Y orientation angle, node 10, rad
         63    1.147E-01, -4.151E-02,  9.925E-01         F               0         Tower Z orientation angle, node 10, rad
         64    9.934E-01,  9.930E-03, -1.144E-01         F               0         Tower X orientation angle, node 11, rad
         65   -5.107E-03,  9.991E-01,  4.237E-02         F               0         Tower Y orientation angle, node 11, rad
         66    1.147E-01, -4.151E-02,  9.925E-01         F               0         Tower Z orientation angle, node 11, rad
         67   -2.856E-03                                 F               0         Tower X translation velocity, node 1, m/s
         68    4.242E-03                                 F               0         Tower Y translation velocity, node 1, m/s
         69    6.317E-04                                 F               0         Tower Z translation velocity, node 1, m/s
         70   -2.609E-03                                 F               0         Tower X translation velocity, node 2, m/s
         71    5.465E-03                                 F               0         Tower Y translation velocity, node 2, m/s
         72    6.544E-04                                 F               0         Tower Z translation velocity, node 2, m/s
         73   -2.363E-03                                 F               0         Tower X translation velocity, node 3, m/s
         74    6.688E-03                                 F               0         Tower Y translation velocity, node 3, m/s
         75    6.771E-04                                 F               0         Tower Z translation velocity, node 3, m/s
         76   -2.117E-03                                 F               0         Tower X translation velocity, node 4, m/s
         77    7.912E-03                                 F               0         Tower Y translation velocity, node 4, m/s
         78    6.997E-04                                 F               0         Tower Z translation velocity, node 4, m/s
         79   -1.870E-03                                 F               0         Tower X translation velocity, node 5, m/s
         80    9.135E-03                                 F               0         Tower Y translation velocity, node 5, m/s
         81    7.224E-04                                 F               0         Tower Z translation velocity, node 5, m/s
         82   -1.624E-03                                 F               0         Tower X translation velocity, node 6, m/s
         83    1.036E-02                                 F               0         Tower Y translation velocity, node 6, m/s
         84    7.451E-04                                 F               0         Tower Z translation velocity, node 6, m/s
         85   -1.377E-03                                 F               0         Tower X translation velocity, node 7, m/s
         86    1.158E-02                                 F               0         Tower Y translation velocity, node 7, m/s
         87    7.677E-04                                 F               0         Tower Z translation velocity, node 7, m/s
         88   -1.131E-03                                 F               0         Tower X translation velocity, node 8, m/s
         89    1.280E-02                                 F               0         Tower Y translation velocity, node 8, m/s
         90    7.904E-04                                 F               0         Tower Z translation velocity, node 8, m/s
         91   -8.846E-04                                 F               0         Tower X translation velocity, node 9, m/s
         92    1.403E-02                                 F               0         Tower Y translation velocity, node 9, m/s
         93    8.131E-04                                 F               0         Tower Z translation velocity, node 9, m/s
         94   -6.383E-04                                 F               0         Tower X translation velocity, node 10, m/s
         95    1.525E-02                                 F               0         Tower Y translation velocity, node 10, m/s
         96    8.358E-04                                 F               0         Tower Z translation velocity, node 10, m/s
         97   -3.919E-04                                 F               0         Tower X translation velocity, node 11, m/s
         98    1.647E-02                                 F               0         Tower Y translation velocity, node 11, m/s
         99    8.584E-04                                 F               0         Tower Z translation velocity, node 11, m/s
        100    2.613E+01                                 F               0         Hub X translation displacement, node 1, m
        101   -6.683E+00                                 F               0         Hub Y translation displacement, node 1, m
        102   -5.573E-02                                 F               0         Hub Z translation displacement, node 1, m
        103    9.760E-01,  1.421E-02, -2.175E-01         F               0         Hub X orientation angle, node 1, rad
        104    8.342E-02,  8.976E-01,  4.329E-01         F               0         Hub Y orientation angle, node 1, rad
        105    2.014E-01, -4.407E-01,  8.748E-01         F               0         Hub Z orientation angle, node 1, rad
        106    8.582E-01                                 F               0         Hub X rotation velocity, node 1, rad/s
        107    1.252E-02                                 F               0         Hub Y rotation velocity, node 1, rad/s
        108   -1.913E-01                                 F               0         Hub Z rotation velocity, node 1, rad/s
        109    9.730E-01, -1.242E-02, -2.303E-01         F               0         Blade root 1 X orientation angle, node 1, rad
        110    1.123E-01,  8.976E-01,  4.263E-01         F               0         Blade root 1 Y orientation angle, node 1, rad
        111    2.014E-01, -4.407E-01,  8.748E-01         F               0         Blade root 1 Z orientation angle, node 1, rad
        112    9.716E-01,  3.884E-02, -2.335E-01         F               0         Blade root 2 X orientation angle, node 1, rad
        113    1.616E-01, -8.296E-01,  5.344E-01         F               0         Blade root 2 Y orientation angle, node 1, rad
        114   -1.729E-01, -5.570E-01, -8.123E-01         F               0         Blade root 2 Z orientation angle, node 1, rad
        115    9.819E-01,  1.620E-02, -1.885E-01         F               0         Blade root 3 X orientation angle, node 1, rad
        116   -1.871E-01, -6.671E-02, -9.801E-01         F               0         Blade root 3 Y orientation angle, node 1, rad
        117   -2.846E-02,  9.976E-01, -6.247E-02         F               0         Blade root 3 Z orientation angle, node 1, rad
        118    2.667E+01                                 F               0         Blade 1 X translation displacement, node 1, m
        119   -9.124E+00                                 F               0         Blade 1 Y translation displacement, node 1, m
        120   -7.190E-01                                 F               0         Blade 1 Z translation displacement, node 1, m
        121    2.680E+01                                 F               0         Blade 1 X translation displacement, node 2, m
        122   -9.712E+00                                 F               0         Blade 1 Y translation displacement, node 2, m
        123   -8.789E-01                                 F               0         Blade 1 Z translation displacement, node 2, m
        124    2.856E+01                                 F               0         Blade 1 X translation displacement, node 3, m
        125   -1.771E+01                                 F               0         Blade 1 Y translation displacement, node 3, m
        126   -3.052E+00                                 F               0         Blade 1 Z translation displacement, node 3, m
        127    2.893E+01                                 F               0         Blade 1 X translation displacement, node 4, m
        128   -1.942E+01                                 F               0         Blade 1 Y translation displacement, node 4, m
        129   -3.515E+00                                 F               0         Blade 1 Z translation displacement, node 4, m
        130    2.930E+01                                 F               0         Blade 1 X translation displacement, node 5, m
        131   -2.112E+01                                 F               0         Blade 1 Y translation displacement, node 5, m
        132   -3.978E+00                                 F               0         Blade 1 Z translation displacement, node 5, m
        133    2.968E+01                                 F               0         Blade 1 X translation displacement, node 6, m
        134   -2.282E+01                                 F               0         Blade 1 Y translation displacement, node 6, m
        135   -4.442E+00                                 F               0         Blade 1 Z translation displacement, node 6, m
        136    3.005E+01                                 F               0         Blade 1 X translation displacement, node 7, m
        137   -2.453E+01                                 F               0         Blade 1 Y translation displacement, node 7, m
        138   -4.905E+00                                 F               0         Blade 1 Z translation displacement, node 7, m
        139    3.043E+01                                 F               0         Blade 1 X translation displacement, node 8, m
        140   -2.623E+01                                 F               0         Blade 1 Y translation displacement, node 8, m
        141   -5.368E+00                                 F               0         Blade 1 Z translation displacement, node 8, m
        142    3.080E+01                                 F               0         Blade 1 X translation displacement, node 9, m
        143   -2.794E+01                                 F               0         Blade 1 Y translation displacement, node 9, m
        144   -5.831E+00                                 F               0         Blade 1 Z translation displacement, node 9, m
        145    3.118E+01                                 F               0         Blade 1 X translation displacement, node 10, m
        146   -2.964E+01                                 F               0         Blade 1 Y translation displacement, node 10, m
        147   -6.294E+00                                 F               0         Blade 1 Z translation displacement, node 10, m
        148    3.155E+01                                 F               0         Blade 1 X translation displacement, node 11, m
        149   -3.135E+01                                 F               0         Blade 1 Y translation displacement, node 11, m
        150   -6.757E+00                                 F               0         Blade 1 Z translation displacement, node 11, m
        151    3.193E+01                                 F               0         Blade 1 X translation displacement, node 12, m
        152   -3.305E+01                                 F               0         Blade 1 Y translation displacement, node 12, m
        153   -7.220E+00                                 F               0         Blade 1 Z translation displacement, node 12, m
        154    3.230E+01                                 F               0         Blade 1 X translation displacement, node 13, m
        155   -3.475E+01                                 F               0         Blade 1 Y translation displacement, node 13, m
        156   -7.683E+00                                 F               0         Blade 1 Z translation displacement, node 13, m
        157    3.268E+01                                 F               0         Blade 1 X translation displacement, node 14, m
        158   -3.646E+01                                 F               0         Blade 1 Y translation displacement, node 14, m
        159   -8.146E+00                                 F               0         Blade 1 Z translation displacement, node 14, m
        160    3.305E+01                                 F               0         Blade 1 X translation displacement, node 15, m
        161   -3.816E+01                                 F               0         Blade 1 Y translation displacement, node 15, m
        162   -8.609E+00                                 F               0         Blade 1 Z translation displacement, node 15, m
        163    3.343E+01                                 F               0         Blade 1 X translation displacement, node 16, m
        164   -3.987E+01                                 F               0         Blade 1 Y translation displacement, node 16, m
        165   -9.072E+00                                 F               0         Blade 1 Z translation displacement, node 16, m
        166    3.380E+01                                 F               0         Blade 1 X translation displacement, node 17, m
        167   -4.157E+01                                 F               0         Blade 1 Y translation displacement, node 17, m
        168   -9.535E+00                                 F               0         Blade 1 Z translation displacement, node 17, m
        169    3.418E+01                                 F               0         Blade 1 X translation displacement, node 18, m
        170   -4.328E+01                                 F               0         Blade 1 Y translation displacement, node 18, m
        171   -9.999E+00                                 F               0         Blade 1 Z translation displacement, node 18, m
        172    3.455E+01                                 F               0         Blade 1 X translation displacement, node 19, m
        173   -4.498E+01                                 F               0         Blade 1 Y translation displacement, node 19, m
        174   -1.046E+01                                 F               0         Blade 1 Z translation displacement, node 19, m
        175    3.492E+01                                 F               0         Blade 1 X translation displacement, node 20, m
        176   -4.669E+01                                 F               0         Blade 1 Y translation displacement, node 20, m
        177   -1.092E+01                                 F               0         Blade 1 Z translation displacement, node 20, m
        178    3.530E+01                                 F               0         Blade 1 X translation displacement, node 21, m
        179   -4.839E+01                                 F               0         Blade 1 Y translation displacement, node 21, m
        180   -1.139E+01                                 F               0         Blade 1 Z translation displacement, node 21, m
        181    3.567E+01                                 F               0         Blade 1 X translation displacement, node 22, m
        182   -5.009E+01                                 F               0         Blade 1 Y translation displacement, node 22, m
        183   -1.185E+01                                 F               0         Blade 1 Z translation displacement, node 22, m
        184    3.605E+01                                 F               0         Blade 1 X translation displacement, node 23, m
        185   -5.180E+01                                 F               0         Blade 1 Y translation displacement, node 23, m
        186   -1.231E+01                                 F               0         Blade 1 Z translation displacement, node 23, m
        187    3.642E+01                                 F               0         Blade 1 X translation displacement, node 24, m
        188   -5.350E+01                                 F               0         Blade 1 Y translation displacement, node 24, m
        189   -1.278E+01                                 F               0         Blade 1 Z translation displacement, node 24, m
        190    3.680E+01                                 F               0         Blade 1 X translation displacement, node 25, m
        191   -5.521E+01                                 F               0         Blade 1 Y translation displacement, node 25, m
        192   -1.324E+01                                 F               0         Blade 1 Z translation displacement, node 25, m
        193    3.717E+01                                 F               0         Blade 1 X translation displacement, node 26, m
        194   -5.691E+01                                 F               0         Blade 1 Y translation displacement, node 26, m
        195   -1.370E+01                                 F               0         Blade 1 Z translation displacement, node 26, m
        196    3.755E+01                                 F               0         Blade 1 X translation displacement, node 27, m
        197   -5.862E+01                                 F               0         Blade 1 Y translation displacement, node 27, m
        198   -1.417E+01                                 F               0         Blade 1 Z translation displacement, node 27, m
        199    3.787E+01                                 F               0         Blade 1 X translation displacement, node 28, m
        200   -6.006E+01                                 F               0         Blade 1 Y translation displacement, node 28, m
        201   -1.456E+01                                 F               0         Blade 1 Z translation displacement, node 28, m
        202    8.148E-01, -4.204E-01, -3.993E-01         F               0         Blade 1 X orientation angle, node 1, rad
        203    5.437E-01,  7.932E-01,  2.744E-01         F               0         Blade 1 Y orientation angle, node 1, rad
        204    2.014E-01, -4.407E-01,  8.748E-01         F               0         Blade 1 Z orientation angle, node 1, rad
        205    8.148E-01, -4.204E-01, -3.993E-01         F               0         Blade 1 X orientation angle, node 2, rad
        206    5.437E-01,  7.932E-01,  2.744E-01         F               0         Blade 1 Y orientation angle, node 2, rad
        207    2.014E-01, -4.407E-01,  8.748E-01         F               0         Blade 1 Z orientation angle, node 2, rad
        208    9.204E-01, -2.204E-01, -3.229E-01         F               0         Blade 1 X orientation angle, node 3, rad
        209    3.351E-01,  8.702E-01,  3.612E-01         F               0         Blade 1 Y orientation angle, node 3, rad
        210    2.014E-01, -4.407E-01,  8.748E-01         F               0         Blade 1 Z orientation angle, node 3, rad
        211    9.337E-01, -1.835E-01, -3.074E-01         F               0         Blade 1 X orientation angle, node 4, rad
        212    2.959E-01,  8.787E-01,  3.745E-01         F               0         Blade 1 Y orientation angle, node 4, rad
        213    2.014E-01, -4.407E-01,  8.748E-01         F               0         Blade 1 Z orientation angle, node 4, rad
        214    9.430E-01, -1.542E-01, -2.948E-01         F               0         Blade 1 X orientation angle, node 5, rad
        215    2.648E-01,  8.843E-01,  3.845E-01         F               0         Blade 1 Y orientation angle, node 5, rad
        216    2.014E-01, -4.407E-01,  8.748E-01         F               0         Blade 1 Z orientation angle, node 5, rad
        217    9.497E-01, -1.307E-01, -2.845E-01         F               0         Blade 1 X orientation angle, node 6, rad
        218    2.397E-01,  8.881E-01,  3.922E-01         F               0         Blade 1 Y orientation angle, node 6, rad
        219    2.014E-01, -4.407E-01,  8.748E-01         F               0         Blade 1 Z orientation angle, node 6, rad
        220    9.547E-01, -1.113E-01, -2.759E-01         F               0         Blade 1 X orientation angle, node 7, rad
        221    2.189E-01,  8.907E-01,  3.983E-01         F               0         Blade 1 Y orientation angle, node 7, rad
        222    2.014E-01, -4.407E-01,  8.748E-01         F               0         Blade 1 Z orientation angle, node 7, rad
        223    9.585E-01, -9.512E-02, -2.686E-01         F               0         Blade 1 X orientation angle, node 8, rad
        224    2.016E-01,  8.926E-01,  4.032E-01         F               0         Blade 1 Y orientation angle, node 8, rad
        225    2.014E-01, -4.407E-01,  8.748E-01         F               0         Blade 1 Z orientation angle, node 8, rad
        226    9.615E-01, -8.140E-02, -2.624E-01         F               0         Blade 1 X orientation angle, node 9, rad
        227    1.868E-01,  8.940E-01,  4.073E-01         F               0         Blade 1 Y orientation angle, node 9, rad