
Linearized model: Predictions were generated on 12-Feb-2024 at 18:31:58 using OpenFAST, compiled as a 64-bit application using single precision at commit v3.5.1
 linked with  NWTC Subroutine Library; ElastoDyn; InflowWind; AeroDyn; ServoDyn; HydroDyn; MAP++ (<1.20.10>, <Oct-20-2023>)

Description from the FAST input file: CCT-9 Campign 4 model. Input files to be run with OpenFAST 3.5.0. GitHub branch from Lu Wang (https://github.com/luwang00/openfast/tree/dev) compiled on March 7, 2023.

Simulation information:
   Simulation time:                  1005.4750 s
   Rotor Speed:                         1.0470 rad/s
   Azimuth:                             5.3965 rad
   Wind Speed:                         12.0000 m/s
   Number of continuous states:         0
   Number of discrete states:           0
   Number of constraint states:         0
   Number of inputs:                  303
   Number of outputs:                   1
   Jacobians included in this file?    No

Order of inputs:
     Column   Operating Point                     Rotating Frame? Derivative Order Description
   ---------- ---------------                     --------------- ---------------- -----------
          1   -1.080E+01                                 F               0         X-component position of node 1 (hub), m
          2    0.000E+00                                 F               0         Y-component position of node 1 (hub), m
          3    1.497E+02                                 F               0         Z-component position of node 1 (hub), m
          4    2.515E+01                                 F               0         X-component position of node 2 (blade 1, node 1), m
          5   -2.984E+00                                 F               0         Y-component position of node 2 (blade 1, node 1), m
          6    1.528E+02                                 F               0         Z-component position of node 2 (blade 1, node 1), m
          7    2.536E+01                                 F               0         X-component position of node 3 (blade 1, node 2), m
          8   -1.987E+00                                 F               0         Y-component position of node 3 (blade 1, node 2), m
          9    1.537E+02                                 F               0         Z-component position of node 3 (blade 1, node 2), m
         10    2.815E+01                                 F               0         X-component position of node 4 (blade 1, node 3), m
         11    1.157E+01                                 F               0         Y-component position of node 4 (blade 1, node 3), m
         12    1.654E+02                                 F               0         Z-component position of node 4 (blade 1, node 3), m
         13    2.875E+01                                 F               0         X-component position of node 5 (blade 1, node 4), m
         14    1.446E+01                                 F               0         Y-component position of node 5 (blade 1, node 4), m
         15    1.680E+02                                 F               0         Z-component position of node 5 (blade 1, node 4), m
         16    2.934E+01                                 F               0         X-component position of node 6 (blade 1, node 5), m
         17    1.735E+01                                 F               0         Y-component position of node 6 (blade 1, node 5), m
         18    1.705E+02                                 F               0         Z-component position of node 6 (blade 1, node 5), m
         19    2.993E+01                                 F               0         X-component position of node 7 (blade 1, node 6), m
         20    2.024E+01                                 F               0         Y-component position of node 7 (blade 1, node 6), m
         21    1.730E+02                                 F               0         Z-component position of node 7 (blade 1, node 6), m
         22    3.053E+01                                 F               0         X-component position of node 8 (blade 1, node 7), m
         23    2.313E+01                                 F               0         Y-component position of node 8 (blade 1, node 7), m
         24    1.755E+02                                 F               0         Z-component position of node 8 (blade 1, node 7), m
         25    3.112E+01                                 F               0         X-component position of node 9 (blade 1, node 8), m
         26    2.601E+01                                 F               0         Y-component position of node 9 (blade 1, node 8), m
         27    1.780E+02                                 F               0         Z-component position of node 9 (blade 1, node 8), m
         28    3.172E+01                                 F               0         X-component position of node 10 (blade 1, node 9), m
         29    2.890E+01                                 F               0         Y-component position of node 10 (blade 1, node 9), m
         30    1.805E+02                                 F               0         Z-component position of node 10 (blade 1, node 9), m
         31    3.231E+01                                 F               0         X-component position of node 11 (blade 1, node 10), m
         32    3.179E+01                                 F               0         Y-component position of node 11 (blade 1, node 10), m
         33    1.830E+02                                 F               0         Z-component position of node 11 (blade 1, node 10), m
         34    3.291E+01                                 F               0         X-component position of node 12 (blade 1, node 11), m
         35    3.468E+01                                 F               0         Y-component position of node 12 (blade 1, node 11), m
         36    1.855E+02                                 F               0         Z-component position of node 12 (blade 1, node 11), m
         37    3.350E+01                                 F               0         X-component position of node 13 (blade 1, node 12), m
         38    3.757E+01                                 F               0         Y-component position of node 13 (blade 1, node 12), m
         39    1.880E+02                                 F               0         Z-component position of node 13 (blade 1, node 12), m
         40    3.410E+01                                 F               0         X-component position of node 14 (blade 1, node 13), m
         41    4.046E+01                                 F               0         Y-component position of node 14 (blade 1, node 13), m
         42    1.905E+02                                 F               0         Z-component position of node 14 (blade 1, node 13), m
         43    3.469E+01                                 F               0         X-component position of node 15 (blade 1, node 14), m
         44    4.335E+01                                 F               0         Y-component position of node 15 (blade 1, node 14), m
         45    1.930E+02                                 F               0         Z-component position of node 15 (blade 1, node 14), m
         46    3.529E+01                                 F               0         X-component position of node 16 (blade 1, node 15), m
         47    4.624E+01                                 F               0         Y-component position of node 16 (blade 1, node 15), m
         48    1.955E+02                                 F               0         Z-component position of node 16 (blade 1, node 15), m
         49    3.588E+01                                 F               0         X-component position of node 17 (blade 1, node 16), m
         50    4.912E+01                                 F               0         Y-component position of node 17 (blade 1, node 16), m
         51    1.980E+02                                 F               0         Z-component position of node 17 (blade 1, node 16), m
         52    3.647E+01                                 F               0         X-component position of node 18 (blade 1, node 17), m
         53    5.201E+01                                 F               0         Y-component position of node 18 (blade 1, node 17), m
         54    2.005E+02                                 F               0         Z-component position of node 18 (blade 1, node 17), m
         55    3.707E+01                                 F               0         X-component position of node 19 (blade 1, node 18), m
         56    5.490E+01                                 F               0         Y-component position of node 19 (blade 1, node 18), m
         57    2.030E+02                                 F               0         Z-component position of node 19 (blade 1, node 18), m
         58    3.766E+01                                 F               0         X-component position of node 20 (blade 1, node 19), m
         59    5.779E+01                                 F               0         Y-component position of node 20 (blade 1, node 19), m
         60    2.055E+02                                 F               0         Z-component position of node 20 (blade 1, node 19), m
         61    3.826E+01                                 F               0         X-component position of node 21 (blade 1, node 20), m
         62    6.068E+01                                 F               0         Y-component position of node 21 (blade 1, node 20), m
         63    2.080E+02                                 F               0         Z-component position of node 21 (blade 1, node 20), m
         64    3.885E+01                                 F               0         X-component position of node 22 (blade 1, node 21), m
         65    6.357E+01                                 F               0         Y-component position of node 22 (blade 1, node 21), m
         66    2.105E+02                                 F               0         Z-component position of node 22 (blade 1, node 21), m
         67    3.945E+01                                 F               0         X-component position of node 23 (blade 1, node 22), m
         68    6.646E+01                                 F               0         Y-component position of node 23 (blade 1, node 22), m
         69    2.130E+02                                 F               0         Z-component position of node 23 (blade 1, node 22), m
         70    4.004E+01                                 F               0         X-component position of node 24 (blade 1, node 23), m
         71    6.935E+01                                 F               0         Y-component position of node 24 (blade 1, node 23), m
         72    2.155E+02                                 F               0         Z-component position of node 24 (blade 1, node 23), m
         73    4.064E+01                                 F               0         X-component position of node 25 (blade 1, node 24), m
         74    7.223E+01                                 F               0         Y-component position of node 25 (blade 1, node 24), m
         75    2.180E+02                                 F               0         Z-component position of node 25 (blade 1, node 24), m
         76    4.123E+01                                 F               0         X-component position of node 26 (blade 1, node 25), m
         77    7.512E+01                                 F               0         Y-component position of node 26 (blade 1, node 25), m
         78    2.205E+02                                 F               0         Z-component position of node 26 (blade 1, node 25), m
         79    4.183E+01                                 F               0         X-component position of node 27 (blade 1, node 26), m
         80    7.801E+01                                 F               0         Y-component position of node 27 (blade 1, node 26), m
         81    2.230E+02                                 F               0         Z-component position of node 27 (blade 1, node 26), m
         82    4.242E+01                                 F               0         X-component position of node 28 (blade 1, node 27), m
         83    8.090E+01                                 F               0         Y-component position of node 28 (blade 1, node 27), m
         84    2.255E+02                                 F               0         Z-component position of node 28 (blade 1, node 27), m
         85    4.292E+01                                 F               0         X-component position of node 29 (blade 1, node 28), m
         86    8.335E+01                                 F               0         Y-component position of node 29 (blade 1, node 28), m
         87    2.276E+02                                 F               0         Z-component position of node 29 (blade 1, node 28), m
         88    2.484E+01                                 F               0         X-component position of node 30 (blade 2, node 1), m
         89   -1.238E+01                                 F               0         Y-component position of node 30 (blade 2, node 1), m
         90    1.509E+02                                 F               0         Z-component position of node 30 (blade 2, node 1), m
         91    2.497E+01                                 F               0         X-component position of node 31 (blade 2, node 2), m
         92   -1.365E+01                                 F               0         Y-component position of node 31 (blade 2, node 2), m
         93    1.513E+02                                 F               0         Z-component position of node 31 (blade 2, node 2), m
         94    2.674E+01                                 F               0         X-component position of node 32 (blade 2, node 3), m
         95   -3.087E+01                                 F               0         Y-component position of node 32 (blade 2, node 3), m
         96    1.568E+02                                 F               0         Z-component position of node 32 (blade 2, node 3), m
         97    2.712E+01                                 F               0         X-component position of node 33 (blade 2, node 4), m
         98   -3.454E+01                                 F               0         Y-component position of node 33 (blade 2, node 4), m
         99    1.579E+02                                 F               0         Z-component position of node 33 (blade 2, node 4), m
        100    2.750E+01                                 F               0         X-component position of node 34 (blade 2, node 5), m
        101   -3.822E+01                                 F               0         Y-component position of node 34 (blade 2, node 5), m
        102    1.591E+02                                 F               0         Z-component position of node 34 (blade 2, node 5), m
        103    2.788E+01                                 F               0         X-component position of node 35 (blade 2, node 6), m
        104   -4.189E+01                                 F               0         Y-component position of node 35 (blade 2, node 6), m
        105    1.602E+02                                 F               0         Z-component position of node 35 (blade 2, node 6), m
        106    2.825E+01                                 F               0         X-component position of node 36 (blade 2, node 7), m
        107   -4.556E+01                                 F               0         Y-component position of node 36 (blade 2, node 7), m
        108    1.614E+02                                 F               0         Z-component position of node 36 (blade 2, node 7), m
        109    2.863E+01                                 F               0         X-component position of node 37 (blade 2, node 8), m
        110   -4.923E+01                                 F               0         Y-component position of node 37 (blade 2, node 8), m
        111    1.626E+02                                 F               0         Z-component position of node 37 (blade 2, node 8), m
        112    2.901E+01                                 F               0         X-component position of node 38 (blade 2, node 9), m
        113   -5.290E+01                                 F               0         Y-component position of node 38 (blade 2, node 9), m
        114    1.637E+02                                 F               0         Z-component position of node 38 (blade 2, node 9), m
        115    2.938E+01                                 F               0         X-component position of node 39 (blade 2, node 10), m
        116   -5.657E+01                                 F               0         Y-component position of node 39 (blade 2, node 10), m
        117    1.649E+02                                 F               0         Z-component position of node 39 (blade 2, node 10), m
        118    2.976E+01                                 F               0         X-component position of node 40 (blade 2, node 11), m
        119   -6.024E+01                                 F               0         Y-component position of node 40 (blade 2, node 11), m
        120    1.660E+02                                 F               0         Z-component position of node 40 (blade 2, node 11), m
        121    3.014E+01                                 F               0         X-component position of node 41 (blade 2, node 12), m
        122   -6.391E+01                                 F               0         Y-component position of node 41 (blade 2, node 12), m
        123    1.672E+02                                 F               0         Z-component position of node 41 (blade 2, node 12), m
        124    3.052E+01                                 F               0         X-component position of node 42 (blade 2, node 13), m
        125   -6.758E+01                                 F               0         Y-component position of node 42 (blade 2, node 13), m
        126    1.683E+02                                 F               0         Z-component position of node 42 (blade 2, node 13), m
        127    3.089E+01                                 F               0         X-component position of node 43 (blade 2, node 14), m
        128   -7.125E+01                                 F               0         Y-component position of node 43 (blade 2, node 14), m
        129    1.695E+02                                 F               0         Z-component position of node 43 (blade 2, node 14), m
        130    3.127E+01                                 F               0         X-component position of node 44 (blade 2, node 15), m
        131   -7.492E+01                                 F               0         Y-component position of node 44 (blade 2, node 15), m
        132    1.707E+02                                 F               0         Z-component position of node 44 (blade 2, node 15), m
        133    3.165E+01                                 F               0         X-component position of node 45 (blade 2, node 16), m
        134   -7.859E+01                                 F               0         Y-component position of node 45 (blade 2, node 16), m
        135    1.718E+02                                 F               0         Z-component position of node 45 (blade 2, node 16), m
        136    3.202E+01                                 F               0         X-component position of node 46 (blade 2, node 17), m
        137   -8.226E+01                                 F               0         Y-component position of node 46 (blade 2, node 17), m
        138    1.730E+02                                 F               0         Z-component position of node 46 (blade 2, node 17), m
        139    3.240E+01                                 F               0         X-component position of node 47 (blade 2, node 18), m
        140   -8.593E+01                                 F               0         Y-component position of node 47 (blade 2, node 18), m
        141    1.741E+02                                 F               0         Z-component position of node 47 (blade 2, node 18), m
        142    3.278E+01                                 F               0         X-component position of node 48 (blade 2, node 19), m
        143   -8.961E+01                                 F               0         Y-component position of node 48 (blade 2, node 19), m
        144    1.753E+02                                 F               0         Z-component position of node 48 (blade 2, node 19), m
        145    3.316E+01                                 F               0         X-component position of node 49 (blade 2, node 20), m
        146   -9.328E+01                                 F               0         Y-component position of node 49 (blade 2, node 20), m
        147    1.765E+02                                 F               0         Z-component position of node 49 (blade 2, node 20), m
        148    3.353E+01                                 F               0         X-component position of node 50 (blade 2, node 21), m
        149   -9.695E+01                                 F               0         Y-component position of node 50 (blade 2, node 21), m
        150    1.776E+02                                 F               0         Z-component position of node 50 (blade 2, node 21), m
        151    3.391E+01                                 F               0         X-component position of node 51 (blade 2, node 22), m
        152   -1.006E+02                                 F               0         Y-component position of node 51 (blade 2, node 22), m
        153    1.788E+02                                 F               0         Z-component position of node 51 (blade 2, node 22), m
        154    3.429E+01                                 F               0         X-component position of node 52 (blade 2, node 23), m
        155   -1.043E+02                                 F               0         Y-component position of node 52 (blade 2, node 23), m
        156    1.799E+02                                 F               0         Z-component position of node 52 (blade 2, node 23), m
        157    3.466E+01                                 F               0         X-component position of node 53 (blade 2, node 24), m
        158   -1.080E+02                                 F               0         Y-component position of node 53 (blade 2, node 24), m
        159    1.811E+02                                 F               0         Z-component position of node 53 (blade 2, node 24), m
        160    3.504E+01                                 F               0         X-component position of node 54 (blade 2, node 25), m
        161   -1.116E+02                                 F               0         Y-component position of node 54 (blade 2, node 25), m
        162    1.823E+02                                 F               0         Z-component position of node 54 (blade 2, node 25), m
        163    3.542E+01                                 F               0         X-component position of node 55 (blade 2, node 26), m
        164   -1.153E+02                                 F               0         Y-component position of node 55 (blade 2, node 26), m
        165    1.834E+02                                 F               0         Z-component position of node 55 (blade 2, node 26), m
        166    3.580E+01                                 F               0         X-component position of node 56 (blade 2, node 27), m
        167   -1.190E+02                                 F               0         Y-component position of node 56 (blade 2, node 27), m
        168    1.846E+02                                 F               0         Z-component position of node 56 (blade 2, node 27), m
        169    3.612E+01                                 F               0         X-component position of node 57 (blade 2, node 28), m
        170   -1.221E+02                                 F               0         Y-component position of node 57 (blade 2, node 28), m
        171    1.856E+02                                 F               0         Z-component position of node 57 (blade 2, node 28), m
        172    2.291E+01                                 F               0         X-component position of node 58 (blade 3, node 1), m
        173   -6.002E+00                                 F               0         Y-component position of node 58 (blade 3, node 1), m
        174    1.440E+02                                 F               0         Z-component position of node 58 (blade 3, node 1), m
        175    2.258E+01                                 F               0         X-component position of node 59 (blade 3, node 2), m
        176   -5.732E+00                                 F               0         Y-component position of node 59 (blade 3, node 2), m
        177    1.427E+02                                 F               0         Z-component position of node 59 (blade 3, node 2), m
        178    1.802E+01                                 F               0         X-component position of node 60 (blade 3, node 3), m
        179   -2.062E+00                                 F               0         Y-component position of node 60 (blade 3, node 3), m
        180    1.256E+02                                 F               0         Z-component position of node 60 (blade 3, node 3), m
        181    1.704E+01                                 F               0         X-component position of node 61 (blade 3, node 4), m
        182   -1.280E+00                                 F               0         Y-component position of node 61 (blade 3, node 4), m
        183    1.219E+02                                 F               0         Z-component position of node 61 (blade 3, node 4), m
        184    1.607E+01                                 F               0         X-component position of node 62 (blade 3, node 5), m
        185   -4.983E-01                                 F               0         Y-component position of node 62 (blade 3, node 5), m
        186    1.182E+02                                 F               0         Z-component position of node 62 (blade 3, node 5), m
        187    1.510E+01                                 F               0         X-component position of node 63 (blade 3, node 6), m
        188    2.836E-01                                 F               0         Y-component position of node 63 (blade 3, node 6), m
        189    1.146E+02                                 F               0         Z-component position of node 63 (blade 3, node 6), m
        190    1.413E+01                                 F               0         X-component position of node 64 (blade 3, node 7), m
        191    1.065E+00                                 F               0         Y-component position of node 64 (blade 3, node 7), m
        192    1.109E+02                                 F               0         Z-component position of node 64 (blade 3, node 7), m
        193    1.316E+01                                 F               0         X-component position of node 65 (blade 3, node 8), m
        194    1.848E+00                                 F               0         Y-component position of node 65 (blade 3, node 8), m
        195    1.073E+02                                 F               0         Z-component position of node 65 (blade 3, node 8), m
        196    1.219E+01                                 F               0         X-component position of node 66 (blade 3, node 9), m
        197    2.629E+00                                 F               0         Y-component position of node 66 (blade 3, node 9), m
        198    1.036E+02                                 F               0         Z-component position of node 66 (blade 3, node 9), m
        199    1.121E+01                                 F               0         X-component position of node 67 (blade 3, node 10), m
        200    3.411E+00                                 F               0         Y-component position of node 67 (blade 3, node 10), m
        201    9.994E+01                                 F               0         Z-component position of node 67 (blade 3, node 10), m
        202    1.024E+01                                 F               0         X-component position of node 68 (blade 3, node 11), m
        203    4.193E+00                                 F               0         Y-component position of node 68 (blade 3, node 11), m
        204    9.628E+01                                 F               0         Z-component position of node 68 (blade 3, node 11), m
        205    9.270E+00                                 F               0         X-component position of node 69 (blade 3, node 12), m
        206    4.975E+00                                 F               0         Y-component position of node 69 (blade 3, node 12), m
        207    9.262E+01                                 F               0         Z-component position of node 69 (blade 3, node 12), m
        208    8.298E+00                                 F               0         X-component position of node 70 (blade 3, node 13), m
        209    5.757E+00                                 F               0         Y-component position of node 70 (blade 3, node 13), m
        210    8.896E+01                                 F               0         Z-component position of node 70 (blade 3, node 13), m
        211    7.327E+00                                 F               0         X-component position of node 71 (blade 3, node 14), m