
Linearized model: Predictions were generated on 30-Jan-2024 at 18:20:32 using OpenFAST, compiled as a 64-bit application using single precision at commit v3.5.1
 linked with  NWTC Subroutine Library; ElastoDyn; InflowWind; AeroDyn; ServoDyn; HydroDyn; MAP++ (<1.20.10>, <Oct-20-2023>)

Description from the FAST input file: CCT-9 Campign 4 model. Input files to be run with OpenFAST 3.5.0. GitHub branch from Lu Wang (https://github.com/luwang00/openfast/tree/dev) compiled on March 7, 2023.

Simulation information:
   Simulation time:                   502.9750 s
   Rotor Speed:                         0.8794 rad/s
   Azimuth:                             1.4934 rad
   Wind Speed:                         10.0000 m/s
   Number of continuous states:         0
   Number of discrete states:           0
   Number of constraint states:         0
   Number of inputs:                  303
   Number of outputs:                   1
   Jacobians included in this file?    No

Order of inputs:
     Column   Operating Point                     Rotating Frame? Derivative Order Description
   ---------- ---------------                     --------------- ---------------- -----------
          1   -1.080E+01                                 F               0         X-component position of node 1 (hub), m
          2    0.000E+00                                 F               0         Y-component position of node 1 (hub), m
          3    1.497E+02                                 F               0         Z-component position of node 1 (hub), m
          4    1.545E+01                                 F               0         X-component position of node 2 (blade 1, node 1), m
          5   -1.221E+01                                 F               0         Y-component position of node 2 (blade 1, node 1), m
          6    1.499E+02                                 F               0         Z-component position of node 2 (blade 1, node 1), m
          7    1.548E+01                                 F               0         X-component position of node 3 (blade 1, node 2), m
          8   -1.354E+01                                 F               0         Y-component position of node 3 (blade 1, node 2), m
          9    1.499E+02                                 F               0         Z-component position of node 3 (blade 1, node 2), m
         10    1.588E+01                                 F               0         X-component position of node 4 (blade 1, node 3), m
         11   -3.168E+01                                 F               0         Y-component position of node 4 (blade 1, node 3), m
         12    1.505E+02                                 F               0         Z-component position of node 4 (blade 1, node 3), m
         13    1.596E+01                                 F               0         X-component position of node 5 (blade 1, node 4), m
         14   -3.554E+01                                 F               0         Y-component position of node 5 (blade 1, node 4), m
         15    1.506E+02                                 F               0         Z-component position of node 5 (blade 1, node 4), m
         16    1.605E+01                                 F               0         X-component position of node 6 (blade 1, node 5), m
         17   -3.941E+01                                 F               0         Y-component position of node 6 (blade 1, node 5), m
         18    1.508E+02                                 F               0         Z-component position of node 6 (blade 1, node 5), m
         19    1.613E+01                                 F               0         X-component position of node 7 (blade 1, node 6), m
         20   -4.327E+01                                 F               0         Y-component position of node 7 (blade 1, node 6), m
         21    1.509E+02                                 F               0         Z-component position of node 7 (blade 1, node 6), m
         22    1.622E+01                                 F               0         X-component position of node 8 (blade 1, node 7), m
         23   -4.714E+01                                 F               0         Y-component position of node 8 (blade 1, node 7), m
         24    1.510E+02                                 F               0         Z-component position of node 8 (blade 1, node 7), m
         25    1.630E+01                                 F               0         X-component position of node 9 (blade 1, node 8), m
         26   -5.100E+01                                 F               0         Y-component position of node 9 (blade 1, node 8), m
         27    1.512E+02                                 F               0         Z-component position of node 9 (blade 1, node 8), m
         28    1.639E+01                                 F               0         X-component position of node 10 (blade 1, node 9), m
         29   -5.487E+01                                 F               0         Y-component position of node 10 (blade 1, node 9), m
         30    1.513E+02                                 F               0         Z-component position of node 10 (blade 1, node 9), m
         31    1.647E+01                                 F               0         X-component position of node 11 (blade 1, node 10), m
         32   -5.873E+01                                 F               0         Y-component position of node 11 (blade 1, node 10), m
         33    1.514E+02                                 F               0         Z-component position of node 11 (blade 1, node 10), m
         34    1.656E+01                                 F               0         X-component position of node 12 (blade 1, node 11), m
         35   -6.259E+01                                 F               0         Y-component position of node 12 (blade 1, node 11), m
         36    1.515E+02                                 F               0         Z-component position of node 12 (blade 1, node 11), m
         37    1.664E+01                                 F               0         X-component position of node 13 (blade 1, node 12), m
         38   -6.646E+01                                 F               0         Y-component position of node 13 (blade 1, node 12), m
         39    1.517E+02                                 F               0         Z-component position of node 13 (blade 1, node 12), m
         40    1.673E+01                                 F               0         X-component position of node 14 (blade 1, node 13), m
         41   -7.032E+01                                 F               0         Y-component position of node 14 (blade 1, node 13), m
         42    1.518E+02                                 F               0         Z-component position of node 14 (blade 1, node 13), m
         43    1.681E+01                                 F               0         X-component position of node 15 (blade 1, node 14), m
         44   -7.419E+01                                 F               0         Y-component position of node 15 (blade 1, node 14), m
         45    1.519E+02                                 F               0         Z-component position of node 15 (blade 1, node 14), m
         46    1.690E+01                                 F               0         X-component position of node 16 (blade 1, node 15), m
         47   -7.805E+01                                 F               0         Y-component position of node 16 (blade 1, node 15), m
         48    1.521E+02                                 F               0         Z-component position of node 16 (blade 1, node 15), m
         49    1.698E+01                                 F               0         X-component position of node 17 (blade 1, node 16), m
         50   -8.192E+01                                 F               0         Y-component position of node 17 (blade 1, node 16), m
         51    1.522E+02                                 F               0         Z-component position of node 17 (blade 1, node 16), m
         52    1.707E+01                                 F               0         X-component position of node 18 (blade 1, node 17), m
         53   -8.578E+01                                 F               0         Y-component position of node 18 (blade 1, node 17), m
         54    1.523E+02                                 F               0         Z-component position of node 18 (blade 1, node 17), m
         55    1.715E+01                                 F               0         X-component position of node 19 (blade 1, node 18), m
         56   -8.965E+01                                 F               0         Y-component position of node 19 (blade 1, node 18), m
         57    1.524E+02                                 F               0         Z-component position of node 19 (blade 1, node 18), m
         58    1.724E+01                                 F               0         X-component position of node 20 (blade 1, node 19), m
         59   -9.351E+01                                 F               0         Y-component position of node 20 (blade 1, node 19), m
         60    1.526E+02                                 F               0         Z-component position of node 20 (blade 1, node 19), m
         61    1.732E+01                                 F               0         X-component position of node 21 (blade 1, node 20), m
         62   -9.738E+01                                 F               0         Y-component position of node 21 (blade 1, node 20), m
         63    1.527E+02                                 F               0         Z-component position of node 21 (blade 1, node 20), m
         64    1.741E+01                                 F               0         X-component position of node 22 (blade 1, node 21), m
         65   -1.012E+02                                 F               0         Y-component position of node 22 (blade 1, node 21), m
         66    1.528E+02                                 F               0         Z-component position of node 22 (blade 1, node 21), m
         67    1.749E+01                                 F               0         X-component position of node 23 (blade 1, node 22), m
         68   -1.051E+02                                 F               0         Y-component position of node 23 (blade 1, node 22), m
         69    1.530E+02                                 F               0         Z-component position of node 23 (blade 1, node 22), m
         70    1.758E+01                                 F               0         X-component position of node 24 (blade 1, node 23), m
         71   -1.090E+02                                 F               0         Y-component position of node 24 (blade 1, node 23), m
         72    1.531E+02                                 F               0         Z-component position of node 24 (blade 1, node 23), m
         73    1.766E+01                                 F               0         X-component position of node 25 (blade 1, node 24), m
         74   -1.128E+02                                 F               0         Y-component position of node 25 (blade 1, node 24), m
         75    1.532E+02                                 F               0         Z-component position of node 25 (blade 1, node 24), m
         76    1.775E+01                                 F               0         X-component position of node 26 (blade 1, node 25), m
         77   -1.167E+02                                 F               0         Y-component position of node 26 (blade 1, node 25), m
         78    1.533E+02                                 F               0         Z-component position of node 26 (blade 1, node 25), m
         79    1.783E+01                                 F               0         X-component position of node 27 (blade 1, node 26), m
         80   -1.206E+02                                 F               0         Y-component position of node 27 (blade 1, node 26), m
         81    1.535E+02                                 F               0         Z-component position of node 27 (blade 1, node 26), m
         82    1.791E+01                                 F               0         X-component position of node 28 (blade 1, node 27), m
         83   -1.244E+02                                 F               0         Y-component position of node 28 (blade 1, node 27), m
         84    1.536E+02                                 F               0         Z-component position of node 28 (blade 1, node 27), m
         85    1.799E+01                                 F               0         X-component position of node 29 (blade 1, node 28), m
         86   -1.277E+02                                 F               0         Y-component position of node 29 (blade 1, node 28), m
         87    1.537E+02                                 F               0         Z-component position of node 29 (blade 1, node 28), m
         88    1.423E+01                                 F               0         X-component position of node 30 (blade 2, node 1), m
         89   -4.081E+00                                 F               0         Y-component position of node 30 (blade 2, node 1), m
         90    1.449E+02                                 F               0         Z-component position of node 30 (blade 2, node 1), m
         91    1.396E+01                                 F               0         X-component position of node 31 (blade 2, node 2), m
         92   -3.457E+00                                 F               0         Y-component position of node 31 (blade 2, node 2), m
         93    1.438E+02                                 F               0         Z-component position of node 31 (blade 2, node 2), m
         94    1.036E+01                                 F               0         X-component position of node 32 (blade 2, node 3), m
         95    5.027E+00                                 F               0         Y-component position of node 32 (blade 2, node 3), m
         96    1.281E+02                                 F               0         Z-component position of node 32 (blade 2, node 3), m
         97    9.586E+00                                 F               0         X-component position of node 33 (blade 2, node 4), m
         98    6.835E+00                                 F               0         Y-component position of node 33 (blade 2, node 4), m
         99    1.248E+02                                 F               0         Z-component position of node 33 (blade 2, node 4), m
        100    8.817E+00                                 F               0         X-component position of node 34 (blade 2, node 5), m
        101    8.642E+00                                 F               0         Y-component position of node 34 (blade 2, node 5), m
        102    1.215E+02                                 F               0         Z-component position of node 34 (blade 2, node 5), m
        103    8.048E+00                                 F               0         X-component position of node 35 (blade 2, node 6), m
        104    1.045E+01                                 F               0         Y-component position of node 35 (blade 2, node 6), m
        105    1.181E+02                                 F               0         Z-component position of node 35 (blade 2, node 6), m
        106    7.279E+00                                 F               0         X-component position of node 36 (blade 2, node 7), m
        107    1.226E+01                                 F               0         Y-component position of node 36 (blade 2, node 7), m
        108    1.148E+02                                 F               0         Z-component position of node 36 (blade 2, node 7), m
        109    6.510E+00                                 F               0         X-component position of node 37 (blade 2, node 8), m
        110    1.407E+01                                 F               0         Y-component position of node 37 (blade 2, node 8), m
        111    1.115E+02                                 F               0         Z-component position of node 37 (blade 2, node 8), m
        112    5.741E+00                                 F               0         X-component position of node 38 (blade 2, node 9), m
        113    1.587E+01                                 F               0         Y-component position of node 38 (blade 2, node 9), m
        114    1.081E+02                                 F               0         Z-component position of node 38 (blade 2, node 9), m
        115    4.972E+00                                 F               0         X-component position of node 39 (blade 2, node 10), m
        116    1.768E+01                                 F               0         Y-component position of node 39 (blade 2, node 10), m
        117    1.048E+02                                 F               0         Z-component position of node 39 (blade 2, node 10), m
        118    4.203E+00                                 F               0         X-component position of node 40 (blade 2, node 11), m
        119    1.949E+01                                 F               0         Y-component position of node 40 (blade 2, node 11), m
        120    1.015E+02                                 F               0         Z-component position of node 40 (blade 2, node 11), m
        121    3.434E+00                                 F               0         X-component position of node 41 (blade 2, node 12), m
        122    2.130E+01                                 F               0         Y-component position of node 41 (blade 2, node 12), m
        123    9.814E+01                                 F               0         Z-component position of node 41 (blade 2, node 12), m
        124    2.665E+00                                 F               0         X-component position of node 42 (blade 2, node 13), m
        125    2.310E+01                                 F               0         Y-component position of node 42 (blade 2, node 13), m
        126    9.481E+01                                 F               0         Z-component position of node 42 (blade 2, node 13), m
        127    1.897E+00                                 F               0         X-component position of node 43 (blade 2, node 14), m
        128    2.491E+01                                 F               0         Y-component position of node 43 (blade 2, node 14), m
        129    9.148E+01                                 F               0         Z-component position of node 43 (blade 2, node 14), m
        130    1.127E+00                                 F               0         X-component position of node 44 (blade 2, node 15), m
        131    2.672E+01                                 F               0         Y-component position of node 44 (blade 2, node 15), m
        132    8.815E+01                                 F               0         Z-component position of node 44 (blade 2, node 15), m
        133    3.585E-01                                 F               0         X-component position of node 45 (blade 2, node 16), m
        134    2.853E+01                                 F               0         Y-component position of node 45 (blade 2, node 16), m
        135    8.482E+01                                 F               0         Z-component position of node 45 (blade 2, node 16), m
        136   -4.104E-01                                 F               0         X-component position of node 46 (blade 2, node 17), m
        137    3.033E+01                                 F               0         Y-component position of node 46 (blade 2, node 17), m
        138    8.148E+01                                 F               0         Z-component position of node 46 (blade 2, node 17), m
        139   -1.179E+00                                 F               0         X-component position of node 47 (blade 2, node 18), m
        140    3.214E+01                                 F               0         Y-component position of node 47 (blade 2, node 18), m
        141    7.815E+01                                 F               0         Z-component position of node 47 (blade 2, node 18), m
        142   -1.948E+00                                 F               0         X-component position of node 48 (blade 2, node 19), m
        143    3.395E+01                                 F               0         Y-component position of node 48 (blade 2, node 19), m
        144    7.482E+01                                 F               0         Z-component position of node 48 (blade 2, node 19), m
        145   -2.717E+00                                 F               0         X-component position of node 49 (blade 2, node 20), m
        146    3.576E+01                                 F               0         Y-component position of node 49 (blade 2, node 20), m
        147    7.149E+01                                 F               0         Z-component position of node 49 (blade 2, node 20), m
        148   -3.486E+00                                 F               0         X-component position of node 50 (blade 2, node 21), m
        149    3.756E+01                                 F               0         Y-component position of node 50 (blade 2, node 21), m
        150    6.816E+01                                 F               0         Z-component position of node 50 (blade 2, node 21), m
        151   -4.255E+00                                 F               0         X-component position of node 51 (blade 2, node 22), m
        152    3.937E+01                                 F               0         Y-component position of node 51 (blade 2, node 22), m
        153    6.483E+01                                 F               0         Z-component position of node 51 (blade 2, node 22), m
        154   -5.024E+00                                 F               0         X-component position of node 52 (blade 2, node 23), m
        155    4.118E+01                                 F               0         Y-component position of node 52 (blade 2, node 23), m
        156    6.149E+01                                 F               0         Z-component position of node 52 (blade 2, node 23), m
        157   -5.793E+00                                 F               0         X-component position of node 53 (blade 2, node 24), m
        158    4.299E+01                                 F               0         Y-component position of node 53 (blade 2, node 24), m
        159    5.816E+01                                 F               0         Z-component position of node 53 (blade 2, node 24), m
        160   -6.562E+00                                 F               0         X-component position of node 54 (blade 2, node 25), m
        161    4.480E+01                                 F               0         Y-component position of node 54 (blade 2, node 25), m
        162    5.483E+01                                 F               0         Z-component position of node 54 (blade 2, node 25), m
        163   -7.331E+00                                 F               0         X-component position of node 55 (blade 2, node 26), m
        164    4.660E+01                                 F               0         Y-component position of node 55 (blade 2, node 26), m
        165    5.150E+01                                 F               0         Z-component position of node 55 (blade 2, node 26), m
        166   -8.100E+00                                 F               0         X-component position of node 56 (blade 2, node 27), m
        167    4.841E+01                                 F               0         Y-component position of node 56 (blade 2, node 27), m
        168    4.817E+01                                 F               0         Z-component position of node 56 (blade 2, node 27), m
        169   -8.752E+00                                 F               0         X-component position of node 57 (blade 2, node 28), m
        170    4.994E+01                                 F               0         Y-component position of node 57 (blade 2, node 28), m
        171    4.534E+01                                 F               0         Z-component position of node 57 (blade 2, node 28), m
        172    1.631E+01                                 F               0         X-component position of node 58 (blade 3, node 1), m
        173   -3.724E+00                                 F               0         Y-component position of node 58 (blade 3, node 1), m
        174    1.543E+02                                 F               0         Z-component position of node 58 (blade 3, node 1), m
        175    1.655E+01                                 F               0         X-component position of node 59 (blade 3, node 2), m
        176   -3.014E+00                                 F               0         Y-component position of node 59 (blade 3, node 2), m
        177    1.554E+02                                 F               0         Z-component position of node 59 (blade 3, node 2), m
        178    1.976E+01                                 F               0         X-component position of node 60 (blade 3, node 3), m
        179    6.640E+00                                 F               0         Y-component position of node 60 (blade 3, node 3), m
        180    1.704E+02                                 F               0         Z-component position of node 60 (blade 3, node 3), m
        181    2.044E+01                                 F               0         X-component position of node 61 (blade 3, node 4), m
        182    8.697E+00                                 F               0         Y-component position of node 61 (blade 3, node 4), m
        183    1.736E+02                                 F               0         Z-component position of node 61 (blade 3, node 4), m
        184    2.113E+01                                 F               0         X-component position of node 62 (blade 3, node 5), m
        185    1.075E+01                                 F               0         Y-component position of node 62 (blade 3, node 5), m
        186    1.768E+02                                 F               0         Z-component position of node 62 (blade 3, node 5), m
        187    2.181E+01                                 F               0         X-component position of node 63 (blade 3, node 6), m
        188    1.281E+01                                 F               0         Y-component position of node 63 (blade 3, node 6), m
        189    1.800E+02                                 F               0         Z-component position of node 63 (blade 3, node 6), m
        190    2.249E+01                                 F               0         X-component position of node 64 (blade 3, node 7), m
        191    1.487E+01                                 F               0         Y-component position of node 64 (blade 3, node 7), m
        192    1.832E+02                                 F               0         Z-component position of node 64 (blade 3, node 7), m
        193    2.318E+01                                 F               0         X-component position of node 65 (blade 3, node 8), m
        194    1.693E+01                                 F               0         Y-component position of node 65 (blade 3, node 8), m
        195    1.864E+02                                 F               0         Z-component position of node 65 (blade 3, node 8), m
        196    2.386E+01                                 F               0         X-component position of node 66 (blade 3, node 9), m
        197    1.898E+01                                 F               0         Y-component position of node 66 (blade 3, node 9), m
        198    1.896E+02                                 F               0         Z-component position of node 66 (blade 3, node 9), m
        199    2.455E+01                                 F               0         X-component position of node 67 (blade 3, node 10), m
        200    2.104E+01                                 F               0         Y-component position of node 67 (blade 3, node 10), m
        201    1.928E+02                                 F               0         Z-component position of node 67 (blade 3, node 10), m
        202    2.523E+01                                 F               0         X-component position of node 68 (blade 3, node 11), m
        203    2.310E+01                                 F               0         Y-component position of node 68 (blade 3, node 11), m
        204    1.960E+02                                 F               0         Z-component position of node 68 (blade 3, node 11), m
        205    2.592E+01                                 F               0         X-component position of node 69 (blade 3, node 12), m
        206    2.515E+01                                 F               0         Y-component position of node 69 (blade 3, node 12), m
        207    1.992E+02                                 F               0         Z-component position of node 69 (blade 3, node 12), m
        208    2.660E+01                                 F               0         X-component position of node 70 (blade 3, node 13), m
        209    2.721E+01                                 F               0         Y-component position of node 70 (blade 3, node 13), m
        210    2.024E+02                                 F               0         Z-component position of node 70 (blade 3, node 13), m
        211    2.728E+01                                 F               0         X-component position of node 71 (blade 3, node 14), m