
Linearized model: Predictions were generated on 12-Feb-2024 at 18:31:58 using OpenFAST, compiled as a 64-bit application using single precision at commit v3.5.1
 linked with  NWTC Subroutine Library; ElastoDyn; InflowWind; AeroDyn; ServoDyn; HydroDyn; MAP++ (<1.20.10>, <Oct-20-2023>)

Description from the FAST input file: CCT-9 Campign 4 model. Input files to be run with OpenFAST 3.5.0. GitHub branch from Lu Wang (https://github.com/luwang00/openfast/tree/dev) compiled on March 7, 2023.

Simulation information:
   Simulation time:                  1002.2500 s
   Rotor Speed:                         1.0463 rad/s
   Azimuth:                             2.0208 rad
   Wind Speed:                         12.0000 m/s
   Number of continuous states:         0
   Number of discrete states:           0
   Number of constraint states:         0
   Number of inputs:                 1746
   Number of outputs:                   4
   Jacobians included in this file?    No

Order of inputs:
     Column   Operating Point                     Rotating Frame? Derivative Order Description
   ---------- ---------------                     --------------- ---------------- -----------
          1    1.518E+01                                 F               0         Tower X translation displacement, node 1, m
          2   -1.058E+00                                 F               0         Tower Y translation displacement, node 1, m
          3   -4.787E-01                                 F               0         Tower Z translation displacement, node 1, m
          4    1.704E+01                                 F               0         Tower X translation displacement, node 2, m
          5   -1.616E+00                                 F               0         Tower Y translation displacement, node 2, m
          6   -6.327E-01                                 F               0         Tower Z translation displacement, node 2, m
          7    1.891E+01                                 F               0         Tower X translation displacement, node 3, m
          8   -2.173E+00                                 F               0         Tower Y translation displacement, node 3, m
          9   -7.867E-01                                 F               0         Tower Z translation displacement, node 3, m
         10    2.077E+01                                 F               0         Tower X translation displacement, node 4, m
         11   -2.731E+00                                 F               0         Tower Y translation displacement, node 4, m
         12   -9.408E-01                                 F               0         Tower Z translation displacement, node 4, m
         13    2.263E+01                                 F               0         Tower X translation displacement, node 5, m
         14   -3.289E+00                                 F               0         Tower Y translation displacement, node 5, m
         15   -1.095E+00                                 F               0         Tower Z translation displacement, node 5, m
         16    2.450E+01                                 F               0         Tower X translation displacement, node 6, m
         17   -3.847E+00                                 F               0         Tower Y translation displacement, node 6, m
         18   -1.249E+00                                 F               0         Tower Z translation displacement, node 6, m
         19    2.636E+01                                 F               0         Tower X translation displacement, node 7, m
         20   -4.405E+00                                 F               0         Tower Y translation displacement, node 7, m
         21   -1.403E+00                                 F               0         Tower Z translation displacement, node 7, m
         22    2.822E+01                                 F               0         Tower X translation displacement, node 8, m
         23   -4.962E+00                                 F               0         Tower Y translation displacement, node 8, m
         24   -1.557E+00                                 F               0         Tower Z translation displacement, node 8, m
         25    3.009E+01                                 F               0         Tower X translation displacement, node 9, m
         26   -5.520E+00                                 F               0         Tower Y translation displacement, node 9, m
         27   -1.711E+00                                 F               0         Tower Z translation displacement, node 9, m
         28    3.195E+01                                 F               0         Tower X translation displacement, node 10, m
         29   -6.078E+00                                 F               0         Tower Y translation displacement, node 10, m
         30   -1.865E+00                                 F               0         Tower Z translation displacement, node 10, m
         31    3.381E+01                                 F               0         Tower X translation displacement, node 11, m
         32   -6.636E+00                                 F               0         Tower Y translation displacement, node 11, m
         33   -2.019E+00                                 F               0         Tower Z translation displacement, node 11, m
         34    9.885E-01,  1.466E-02, -1.503E-01         F               0         Tower X orientation angle, node 1, rad
         35   -7.689E-03,  9.989E-01,  4.684E-02         F               0         Tower Y orientation angle, node 1, rad
         36    1.508E-01, -4.515E-02,  9.875E-01         F               0         Tower Z orientation angle, node 1, rad
         37    9.885E-01,  1.466E-02, -1.503E-01         F               0         Tower X orientation angle, node 2, rad
         38   -7.689E-03,  9.989E-01,  4.684E-02         F               0         Tower Y orientation angle, node 2, rad
         39    1.508E-01, -4.515E-02,  9.875E-01         F               0         Tower Z orientation angle, node 2, rad
         40    9.885E-01,  1.466E-02, -1.503E-01         F               0         Tower X orientation angle, node 3, rad
         41   -7.689E-03,  9.989E-01,  4.684E-02         F               0         Tower Y orientation angle, node 3, rad
         42    1.508E-01, -4.515E-02,  9.875E-01         F               0         Tower Z orientation angle, node 3, rad
         43    9.885E-01,  1.466E-02, -1.503E-01         F               0         Tower X orientation angle, node 4, rad
         44   -7.689E-03,  9.989E-01,  4.684E-02         F               0         Tower Y orientation angle, node 4, rad
         45    1.508E-01, -4.515E-02,  9.875E-01         F               0         Tower Z orientation angle, node 4, rad
         46    9.885E-01,  1.466E-02, -1.503E-01         F               0         Tower X orientation angle, node 5, rad
         47   -7.689E-03,  9.989E-01,  4.684E-02         F               0         Tower Y orientation angle, node 5, rad
         48    1.508E-01, -4.515E-02,  9.875E-01         F               0         Tower Z orientation angle, node 5, rad
         49    9.885E-01,  1.466E-02, -1.503E-01         F               0         Tower X orientation angle, node 6, rad
         50   -7.689E-03,  9.989E-01,  4.684E-02         F               0         Tower Y orientation angle, node 6, rad
         51    1.508E-01, -4.515E-02,  9.875E-01         F               0         Tower Z orientation angle, node 6, rad
         52    9.885E-01,  1.466E-02, -1.503E-01         F               0         Tower X orientation angle, node 7, rad
         53   -7.689E-03,  9.989E-01,  4.684E-02         F               0         Tower Y orientation angle, node 7, rad
         54    1.508E-01, -4.515E-02,  9.875E-01         F               0         Tower Z orientation angle, node 7, rad
         55    9.885E-01,  1.466E-02, -1.503E-01         F               0         Tower X orientation angle, node 8, rad
         56   -7.689E-03,  9.989E-01,  4.684E-02         F               0         Tower Y orientation angle, node 8, rad
         57    1.508E-01, -4.515E-02,  9.875E-01         F               0         Tower Z orientation angle, node 8, rad
         58    9.885E-01,  1.466E-02, -1.503E-01         F               0         Tower X orientation angle, node 9, rad
         59   -7.689E-03,  9.989E-01,  4.684E-02         F               0         Tower Y orientation angle, node 9, rad
         60    1.508E-01, -4.515E-02,  9.875E-01         F               0         Tower Z orientation angle, node 9, rad
         61    9.885E-01,  1.466E-02, -1.503E-01         F               0         Tower X orientation angle, node 10, rad
         62   -7.689E-03,  9.989E-01,  4.684E-02         F               0         Tower Y orientation angle, node 10, rad
         63    1.508E-01, -4.515E-02,  9.875E-01         F               0         Tower Z orientation angle, node 10, rad
         64    9.885E-01,  1.466E-02, -1.503E-01         F               0         Tower X orientation angle, node 11, rad
         65   -7.689E-03,  9.989E-01,  4.684E-02         F               0         Tower Y orientation angle, node 11, rad
         66    1.508E-01, -4.515E-02,  9.875E-01         F               0         Tower Z orientation angle, node 11, rad
         67   -5.742E-04                                 F               0         Tower X translation velocity, node 1, m/s
         68   -2.711E-03                                 F               0         Tower Y translation velocity, node 1, m/s
         69    2.804E-04                                 F               0         Tower Z translation velocity, node 1, m/s
         70   -9.529E-04                                 F               0         Tower X translation velocity, node 2, m/s
         71   -4.803E-03                                 F               0         Tower Y translation velocity, node 2, m/s
         72    2.426E-04                                 F               0         Tower Z translation velocity, node 2, m/s
         73   -1.332E-03                                 F               0         Tower X translation velocity, node 3, m/s
         74   -6.896E-03                                 F               0         Tower Y translation velocity, node 3, m/s
         75    2.048E-04                                 F               0         Tower Z translation velocity, node 3, m/s
         76   -1.710E-03                                 F               0         Tower X translation velocity, node 4, m/s
         77   -8.988E-03                                 F               0         Tower Y translation velocity, node 4, m/s
         78    1.669E-04                                 F               0         Tower Z translation velocity, node 4, m/s
         79   -2.089E-03                                 F               0         Tower X translation velocity, node 5, m/s
         80   -1.108E-02                                 F               0         Tower Y translation velocity, node 5, m/s
         81    1.291E-04                                 F               0         Tower Z translation velocity, node 5, m/s
         82   -2.468E-03                                 F               0         Tower X translation velocity, node 6, m/s
         83   -1.317E-02                                 F               0         Tower Y translation velocity, node 6, m/s
         84    9.128E-05                                 F               0         Tower Z translation velocity, node 6, m/s
         85   -2.847E-03                                 F               0         Tower X translation velocity, node 7, m/s
         86   -1.527E-02                                 F               0         Tower Y translation velocity, node 7, m/s
         87    5.346E-05                                 F               0         Tower Z translation velocity, node 7, m/s
         88   -3.225E-03                                 F               0         Tower X translation velocity, node 8, m/s
         89   -1.736E-02                                 F               0         Tower Y translation velocity, node 8, m/s
         90    1.563E-05                                 F               0         Tower Z translation velocity, node 8, m/s
         91   -3.604E-03                                 F               0         Tower X translation velocity, node 9, m/s
         92   -1.945E-02                                 F               0         Tower Y translation velocity, node 9, m/s
         93   -2.219E-05                                 F               0         Tower Z translation velocity, node 9, m/s
         94   -3.983E-03                                 F               0         Tower X translation velocity, node 10, m/s
         95   -2.154E-02                                 F               0         Tower Y translation velocity, node 10, m/s
         96   -6.001E-05                                 F               0         Tower Z translation velocity, node 10, m/s
         97   -4.362E-03                                 F               0         Tower X translation velocity, node 11, m/s
         98   -2.363E-02                                 F               0         Tower Y translation velocity, node 11, m/s
         99   -9.784E-05                                 F               0         Tower Z translation velocity, node 11, m/s
        100    3.512E+01                                 F               0         Hub X translation displacement, node 1, m
        101   -7.148E+00                                 F               0         Hub Y translation displacement, node 1, m
        102   -4.937E-01                                 F               0         Hub Z translation displacement, node 1, m
        103    9.674E-01,  1.929E-02, -2.527E-01         F               0         Hub X orientation angle, node 1, rad
        104    2.314E-01, -4.735E-01,  8.498E-01         F               0         Hub Y orientation angle, node 1, rad
        105   -1.032E-01, -8.806E-01, -4.625E-01         F               0         Hub Z orientation angle, node 1, rad
        106    1.012E+00                                 F               0         Hub X rotation velocity, node 1, rad/s
        107    2.015E-02                                 F               0         Hub Y rotation velocity, node 1, rad/s
        108   -2.643E-01                                 F               0         Hub Z rotation velocity, node 1, rad/s
        109    9.601E-01,  3.333E-02, -2.778E-01         F               0         Blade root 1 X orientation angle, node 1, rad
        110    2.600E-01, -4.727E-01,  8.420E-01         F               0         Blade root 1 Y orientation angle, node 1, rad
        111   -1.032E-01, -8.806E-01, -4.625E-01         F               0         Blade root 1 Z orientation angle, node 1, rad
        112    9.730E-01,  3.489E-02, -2.281E-01         F               0         Blade root 2 X orientation angle, node 1, rad
        113   -1.763E-01, -5.251E-01, -8.326E-01         F               0         Blade root 2 Y orientation angle, node 1, rad
        114   -1.488E-01,  8.504E-01, -5.047E-01         F               0         Blade root 2 Z orientation angle, node 1, rad
        115    9.677E-01, -1.036E-02, -2.518E-01         F               0         Blade root 3 X orientation angle, node 1, rad
        116    2.409E-03,  9.995E-01, -3.186E-02         F               0         Blade root 3 Y orientation angle, node 1, rad
        117    2.520E-01,  3.023E-02,  9.672E-01         F               0         Blade root 3 Z orientation angle, node 1, rad
        118    3.397E+01                                 F               0         Blade 1 X translation displacement, node 1, m
        119   -1.203E+01                                 F               0         Blade 1 Y translation displacement, node 1, m
        120   -8.566E+00                                 F               0         Blade 1 Z translation displacement, node 1, m
        121    3.369E+01                                 F               0         Blade 1 X translation displacement, node 2, m
        122   -1.320E+01                                 F               0         Blade 1 Y translation displacement, node 2, m
        123   -1.051E+01                                 F               0         Blade 1 Z translation displacement, node 2, m
        124    2.992E+01                                 F               0         Blade 1 X translation displacement, node 3, m
        125   -2.919E+01                                 F               0         Blade 1 Y translation displacement, node 3, m
        126   -3.696E+01                                 F               0         Blade 1 Z translation displacement, node 3, m
        127    2.912E+01                                 F               0         Blade 1 X translation displacement, node 4, m
        128   -3.259E+01                                 F               0         Blade 1 Y translation displacement, node 4, m
        129   -4.259E+01                                 F               0         Blade 1 Z translation displacement, node 4, m
        130    2.831E+01                                 F               0         Blade 1 X translation displacement, node 5, m
        131   -3.600E+01                                 F               0         Blade 1 Y translation displacement, node 5, m
        132   -4.823E+01                                 F               0         Blade 1 Z translation displacement, node 5, m
        133    2.751E+01                                 F               0         Blade 1 X translation displacement, node 6, m
        134   -3.940E+01                                 F               0         Blade 1 Y translation displacement, node 6, m
        135   -5.387E+01                                 F               0         Blade 1 Z translation displacement, node 6, m
        136    2.670E+01                                 F               0         Blade 1 X translation displacement, node 7, m
        137   -4.281E+01                                 F               0         Blade 1 Y translation displacement, node 7, m
        138   -5.950E+01                                 F               0         Blade 1 Z translation displacement, node 7, m
        139    2.590E+01                                 F               0         Blade 1 X translation displacement, node 8, m
        140   -4.622E+01                                 F               0         Blade 1 Y translation displacement, node 8, m
        141   -6.514E+01                                 F               0         Blade 1 Z translation displacement, node 8, m
        142    2.510E+01                                 F               0         Blade 1 X translation displacement, node 9, m
        143   -4.962E+01                                 F               0         Blade 1 Y translation displacement, node 9, m
        144   -7.077E+01                                 F               0         Blade 1 Z translation displacement, node 9, m
        145    2.429E+01                                 F               0         Blade 1 X translation displacement, node 10, m
        146   -5.303E+01                                 F               0         Blade 1 Y translation displacement, node 10, m
        147   -7.641E+01                                 F               0         Blade 1 Z translation displacement, node 10, m
        148    2.349E+01                                 F               0         Blade 1 X translation displacement, node 11, m
        149   -5.643E+01                                 F               0         Blade 1 Y translation displacement, node 11, m
        150   -8.204E+01                                 F               0         Blade 1 Z translation displacement, node 11, m
        151    2.269E+01                                 F               0         Blade 1 X translation displacement, node 12, m
        152   -5.984E+01                                 F               0         Blade 1 Y translation displacement, node 12, m
        153   -8.768E+01                                 F               0         Blade 1 Z translation displacement, node 12, m
        154    2.188E+01                                 F               0         Blade 1 X translation displacement, node 13, m
        155   -6.325E+01                                 F               0         Blade 1 Y translation displacement, node 13, m
        156   -9.331E+01                                 F               0         Blade 1 Z translation displacement, node 13, m
        157    2.108E+01                                 F               0         Blade 1 X translation displacement, node 14, m
        158   -6.665E+01                                 F               0         Blade 1 Y translation displacement, node 14, m
        159   -9.895E+01                                 F               0         Blade 1 Z translation displacement, node 14, m
        160    2.028E+01                                 F               0         Blade 1 X translation displacement, node 15, m
        161   -7.006E+01                                 F               0         Blade 1 Y translation displacement, node 15, m
        162   -1.046E+02                                 F               0         Blade 1 Z translation displacement, node 15, m
        163    1.947E+01                                 F               0         Blade 1 X translation displacement, node 16, m
        164   -7.346E+01                                 F               0         Blade 1 Y translation displacement, node 16, m
        165   -1.102E+02                                 F               0         Blade 1 Z translation displacement, node 16, m
        166    1.867E+01                                 F               0         Blade 1 X translation displacement, node 17, m
        167   -7.687E+01                                 F               0         Blade 1 Y translation displacement, node 17, m
        168   -1.159E+02                                 F               0         Blade 1 Z translation displacement, node 17, m
        169    1.786E+01                                 F               0         Blade 1 X translation displacement, node 18, m
        170   -8.027E+01                                 F               0         Blade 1 Y translation displacement, node 18, m
        171   -1.215E+02                                 F               0         Blade 1 Z translation displacement, node 18, m
        172    1.706E+01                                 F               0         Blade 1 X translation displacement, node 19, m
        173   -8.368E+01                                 F               0         Blade 1 Y translation displacement, node 19, m
        174   -1.271E+02                                 F               0         Blade 1 Z translation displacement, node 19, m
        175    1.626E+01                                 F               0         Blade 1 X translation displacement, node 20, m
        176   -8.709E+01                                 F               0         Blade 1 Y translation displacement, node 20, m
        177   -1.328E+02                                 F               0         Blade 1 Z translation displacement, node 20, m
        178    1.545E+01                                 F               0         Blade 1 X translation displacement, node 21, m
        179   -9.049E+01                                 F               0         Blade 1 Y translation displacement, node 21, m
        180   -1.384E+02                                 F               0         Blade 1 Z translation displacement, node 21, m
        181    1.465E+01                                 F               0         Blade 1 X translation displacement, node 22, m
        182   -9.390E+01                                 F               0         Blade 1 Y translation displacement, node 22, m
        183   -1.440E+02                                 F               0         Blade 1 Z translation displacement, node 22, m
        184    1.385E+01                                 F               0         Blade 1 X translation displacement, node 23, m
        185   -9.730E+01                                 F               0         Blade 1 Y translation displacement, node 23, m
        186   -1.497E+02                                 F               0         Blade 1 Z translation displacement, node 23, m
        187    1.304E+01                                 F               0         Blade 1 X translation displacement, node 24, m
        188   -1.007E+02                                 F               0         Blade 1 Y translation displacement, node 24, m
        189   -1.553E+02                                 F               0         Blade 1 Z translation displacement, node 24, m
        190    1.224E+01                                 F               0         Blade 1 X translation displacement, node 25, m
        191   -1.041E+02                                 F               0         Blade 1 Y translation displacement, node 25, m
        192   -1.609E+02                                 F               0         Blade 1 Z translation displacement, node 25, m
        193    1.144E+01                                 F               0         Blade 1 X translation displacement, node 26, m
        194   -1.075E+02                                 F               0         Blade 1 Y translation displacement, node 26, m
        195   -1.666E+02                                 F               0         Blade 1 Z translation displacement, node 26, m
        196    1.063E+01                                 F               0         Blade 1 X translation displacement, node 27, m
        197   -1.109E+02                                 F               0         Blade 1 Y translation displacement, node 27, m
        198   -1.722E+02                                 F               0         Blade 1 Z translation displacement, node 27, m
        199    9.951E+00                                 F               0         Blade 1 X translation displacement, node 28, m
        200   -1.138E+02                                 F               0         Blade 1 Y translation displacement, node 28, m
        201   -1.770E+02                                 F               0         Blade 1 Z translation displacement, node 28, m
        202    7.359E-01,  2.452E-01, -6.312E-01         F               0         Blade 1 X orientation angle, node 1, rad
        203    6.692E-01, -4.055E-01,  6.227E-01         F               0         Blade 1 Y orientation angle, node 1, rad
        204   -1.032E-01, -8.806E-01, -4.625E-01         F               0         Blade 1 Z orientation angle, node 1, rad
        205    7.359E-01,  2.452E-01, -6.312E-01         F               0         Blade 1 X orientation angle, node 2, rad
        206    6.692E-01, -4.055E-01,  6.227E-01         F               0         Blade 1 Y orientation angle, node 2, rad
        207   -1.032E-01, -8.806E-01, -4.625E-01         F               0         Blade 1 Z orientation angle, node 2, rad
        208    8.735E-01,  1.421E-01, -4.656E-01         F               0         Blade 1 X orientation angle, node 3, rad
        209    4.757E-01, -4.521E-01,  7.545E-01         F               0         Blade 1 Y orientation angle, node 3, rad
        210   -1.032E-01, -8.806E-01, -4.625E-01         F               0         Blade 1 Z orientation angle, node 3, rad
        211    8.928E-01,  1.229E-01, -4.333E-01         F               0         Blade 1 X orientation angle, node 4, rad
        212    4.384E-01, -4.577E-01,  7.735E-01         F               0         Blade 1 Y orientation angle, node 4, rad
        213   -1.032E-01, -8.806E-01, -4.625E-01         F               0         Blade 1 Z orientation angle, node 4, rad
        214    9.069E-01,  1.077E-01, -4.074E-01         F               0         Blade 1 X orientation angle, node 5, rad
        215    4.086E-01, -4.615E-01,  7.874E-01         F               0         Blade 1 Y orientation angle, node 5, rad
        216   -1.032E-01, -8.806E-01, -4.625E-01         F               0         Blade 1 Z orientation angle, node 5, rad
        217    9.174E-01,  9.540E-02, -3.864E-01         F               0         Blade 1 X orientation angle, node 6, rad
        218    3.844E-01, -4.642E-01,  7.980E-01         F               0         Blade 1 Y orientation angle, node 6, rad
        219   -1.032E-01, -8.806E-01, -4.625E-01         F               0         Blade 1 Z orientation angle, node 6, rad
        220    9.255E-01,  8.525E-02, -3.689E-01         F               0         Blade 1 X orientation angle, node 7, rad
        221    3.643E-01, -4.662E-01,  8.062E-01         F               0         Blade 1 Y orientation angle, node 7, rad
        222   -1.032E-01, -8.806E-01, -4.625E-01         F               0         Blade 1 Z orientation angle, node 7, rad
        223    9.320E-01,  7.677E-02, -3.542E-01         F               0         Blade 1 X orientation angle, node 8, rad
        224    3.474E-01, -4.676E-01,  8.128E-01         F               0         Blade 1 Y orientation angle, node 8, rad
        225   -1.032E-01, -8.806E-01, -4.625E-01         F               0         Blade 1 Z orientation angle, node 8, rad
        226    9.372E-01,  6.958E-02, -3.417E-01         F               0         Blade 1 X orientation angle, node 9, rad
        227    3.331E-01, -4.688E-01,  8.181E-01         F               0         Blade 1 Y orientation angle, node 9, rad