
Linearized model: Predictions were generated on 12-Feb-2024 at 18:31:58 using OpenFAST, compiled as a 64-bit application using single precision at commit v3.5.1
 linked with  NWTC Subroutine Library; ElastoDyn; InflowWind; AeroDyn; ServoDyn; HydroDyn; MAP++ (<1.20.10>, <Oct-20-2023>)

Description from the FAST input file: CCT-9 Campign 4 model. Input files to be run with OpenFAST 3.5.0. GitHub branch from Lu Wang (https://github.com/luwang00/openfast/tree/dev) compiled on March 7, 2023.

Simulation information:
   Simulation time:                  1004.2250 s
   Rotor Speed:                         1.0469 rad/s
   Azimuth:                             4.0878 rad
   Wind Speed:                         12.0000 m/s
   Number of continuous states:         0
   Number of discrete states:           0
   Number of constraint states:         0
   Number of inputs:                  303
   Number of outputs:                   1
   Jacobians included in this file?    No

Order of inputs:
     Column   Operating Point                     Rotating Frame? Derivative Order Description
   ---------- ---------------                     --------------- ---------------- -----------
          1   -1.080E+01                                 F               0         X-component position of node 1 (hub), m
          2    0.000E+00                                 F               0         Y-component position of node 1 (hub), m
          3    1.497E+02                                 F               0         Z-component position of node 1 (hub), m
          4    2.345E+01                                 F               0         X-component position of node 2 (blade 1, node 1), m
          5   -2.532E+00                                 F               0         Y-component position of node 2 (blade 1, node 1), m
          6    1.463E+02                                 F               0         Z-component position of node 2 (blade 1, node 1), m
          7    2.325E+01                                 F               0         X-component position of node 3 (blade 1, node 2), m
          8   -1.416E+00                                 F               0         Y-component position of node 3 (blade 1, node 2), m
          9    1.456E+02                                 F               0         Z-component position of node 3 (blade 1, node 2), m
         10    2.044E+01                                 F               0         X-component position of node 4 (blade 1, node 3), m
         11    1.375E+01                                 F               0         Y-component position of node 4 (blade 1, node 3), m
         12    1.361E+02                                 F               0         Z-component position of node 4 (blade 1, node 3), m
         13    1.985E+01                                 F               0         X-component position of node 5 (blade 1, node 4), m
         14    1.698E+01                                 F               0         Y-component position of node 5 (blade 1, node 4), m
         15    1.340E+02                                 F               0         Z-component position of node 5 (blade 1, node 4), m
         16    1.925E+01                                 F               0         X-component position of node 6 (blade 1, node 5), m
         17    2.022E+01                                 F               0         Y-component position of node 6 (blade 1, node 5), m
         18    1.320E+02                                 F               0         Z-component position of node 6 (blade 1, node 5), m
         19    1.865E+01                                 F               0         X-component position of node 7 (blade 1, node 6), m
         20    2.345E+01                                 F               0         Y-component position of node 7 (blade 1, node 6), m
         21    1.299E+02                                 F               0         Z-component position of node 7 (blade 1, node 6), m
         22    1.805E+01                                 F               0         X-component position of node 8 (blade 1, node 7), m
         23    2.668E+01                                 F               0         Y-component position of node 8 (blade 1, node 7), m
         24    1.279E+02                                 F               0         Z-component position of node 8 (blade 1, node 7), m
         25    1.746E+01                                 F               0         X-component position of node 9 (blade 1, node 8), m
         26    2.991E+01                                 F               0         Y-component position of node 9 (blade 1, node 8), m
         27    1.259E+02                                 F               0         Z-component position of node 9 (blade 1, node 8), m
         28    1.686E+01                                 F               0         X-component position of node 10 (blade 1, node 9), m
         29    3.315E+01                                 F               0         Y-component position of node 10 (blade 1, node 9), m
         30    1.238E+02                                 F               0         Z-component position of node 10 (blade 1, node 9), m
         31    1.626E+01                                 F               0         X-component position of node 11 (blade 1, node 10), m
         32    3.638E+01                                 F               0         Y-component position of node 11 (blade 1, node 10), m
         33    1.218E+02                                 F               0         Z-component position of node 11 (blade 1, node 10), m
         34    1.566E+01                                 F               0         X-component position of node 12 (blade 1, node 11), m
         35    3.961E+01                                 F               0         Y-component position of node 12 (blade 1, node 11), m
         36    1.197E+02                                 F               0         Z-component position of node 12 (blade 1, node 11), m
         37    1.507E+01                                 F               0         X-component position of node 13 (blade 1, node 12), m
         38    4.284E+01                                 F               0         Y-component position of node 13 (blade 1, node 12), m
         39    1.177E+02                                 F               0         Z-component position of node 13 (blade 1, node 12), m
         40    1.447E+01                                 F               0         X-component position of node 14 (blade 1, node 13), m
         41    4.607E+01                                 F               0         Y-component position of node 14 (blade 1, node 13), m
         42    1.157E+02                                 F               0         Z-component position of node 14 (blade 1, node 13), m
         43    1.387E+01                                 F               0         X-component position of node 15 (blade 1, node 14), m
         44    4.931E+01                                 F               0         Y-component position of node 15 (blade 1, node 14), m
         45    1.136E+02                                 F               0         Z-component position of node 15 (blade 1, node 14), m
         46    1.327E+01                                 F               0         X-component position of node 16 (blade 1, node 15), m
         47    5.254E+01                                 F               0         Y-component position of node 16 (blade 1, node 15), m
         48    1.116E+02                                 F               0         Z-component position of node 16 (blade 1, node 15), m
         49    1.268E+01                                 F               0         X-component position of node 17 (blade 1, node 16), m
         50    5.577E+01                                 F               0         Y-component position of node 17 (blade 1, node 16), m
         51    1.096E+02                                 F               0         Z-component position of node 17 (blade 1, node 16), m
         52    1.208E+01                                 F               0         X-component position of node 18 (blade 1, node 17), m
         53    5.900E+01                                 F               0         Y-component position of node 18 (blade 1, node 17), m
         54    1.075E+02                                 F               0         Z-component position of node 18 (blade 1, node 17), m
         55    1.148E+01                                 F               0         X-component position of node 19 (blade 1, node 18), m
         56    6.223E+01                                 F               0         Y-component position of node 19 (blade 1, node 18), m
         57    1.055E+02                                 F               0         Z-component position of node 19 (blade 1, node 18), m
         58    1.088E+01                                 F               0         X-component position of node 20 (blade 1, node 19), m
         59    6.547E+01                                 F               0         Y-component position of node 20 (blade 1, node 19), m
         60    1.034E+02                                 F               0         Z-component position of node 20 (blade 1, node 19), m
         61    1.029E+01                                 F               0         X-component position of node 21 (blade 1, node 20), m
         62    6.870E+01                                 F               0         Y-component position of node 21 (blade 1, node 20), m
         63    1.014E+02                                 F               0         Z-component position of node 21 (blade 1, node 20), m
         64    9.689E+00                                 F               0         X-component position of node 22 (blade 1, node 21), m
         65    7.193E+01                                 F               0         Y-component position of node 22 (blade 1, node 21), m
         66    9.936E+01                                 F               0         Z-component position of node 22 (blade 1, node 21), m
         67    9.091E+00                                 F               0         X-component position of node 23 (blade 1, node 22), m
         68    7.516E+01                                 F               0         Y-component position of node 23 (blade 1, node 22), m
         69    9.732E+01                                 F               0         Z-component position of node 23 (blade 1, node 22), m
         70    8.494E+00                                 F               0         X-component position of node 24 (blade 1, node 23), m
         71    7.839E+01                                 F               0         Y-component position of node 24 (blade 1, node 23), m
         72    9.529E+01                                 F               0         Z-component position of node 24 (blade 1, node 23), m
         73    7.896E+00                                 F               0         X-component position of node 25 (blade 1, node 24), m
         74    8.163E+01                                 F               0         Y-component position of node 25 (blade 1, node 24), m
         75    9.325E+01                                 F               0         Z-component position of node 25 (blade 1, node 24), m
         76    7.299E+00                                 F               0         X-component position of node 26 (blade 1, node 25), m
         77    8.486E+01                                 F               0         Y-component position of node 26 (blade 1, node 25), m
         78    9.121E+01                                 F               0         Z-component position of node 26 (blade 1, node 25), m
         79    6.701E+00                                 F               0         X-component position of node 27 (blade 1, node 26), m
         80    8.809E+01                                 F               0         Y-component position of node 27 (blade 1, node 26), m
         81    8.917E+01                                 F               0         Z-component position of node 27 (blade 1, node 26), m
         82    6.104E+00                                 F               0         X-component position of node 28 (blade 1, node 27), m
         83    9.132E+01                                 F               0         Y-component position of node 28 (blade 1, node 27), m
         84    8.713E+01                                 F               0         Z-component position of node 28 (blade 1, node 27), m
         85    5.597E+00                                 F               0         X-component position of node 29 (blade 1, node 28), m
         86    9.406E+01                                 F               0         Y-component position of node 29 (blade 1, node 28), m
         87    8.540E+01                                 F               0         Z-component position of node 29 (blade 1, node 28), m
         88    2.570E+01                                 F               0         X-component position of node 30 (blade 2, node 1), m
         89   -6.842E+00                                 F               0         Y-component position of node 30 (blade 2, node 1), m
         90    1.546E+02                                 F               0         Z-component position of node 30 (blade 2, node 1), m
         91    2.604E+01                                 F               0         X-component position of node 31 (blade 2, node 2), m
         92   -6.766E+00                                 F               0         Y-component position of node 31 (blade 2, node 2), m
         93    1.559E+02                                 F               0         Z-component position of node 31 (blade 2, node 2), m
         94    3.059E+01                                 F               0         X-component position of node 32 (blade 2, node 3), m
         95   -5.721E+00                                 F               0         Y-component position of node 32 (blade 2, node 3), m
         96    1.734E+02                                 F               0         Z-component position of node 32 (blade 2, node 3), m
         97    3.157E+01                                 F               0         X-component position of node 33 (blade 2, node 4), m
         98   -5.498E+00                                 F               0         Y-component position of node 33 (blade 2, node 4), m
         99    1.772E+02                                 F               0         Z-component position of node 33 (blade 2, node 4), m
        100    3.254E+01                                 F               0         X-component position of node 34 (blade 2, node 5), m
        101   -5.276E+00                                 F               0         Y-component position of node 34 (blade 2, node 5), m
        102    1.809E+02                                 F               0         Z-component position of node 34 (blade 2, node 5), m
        103    3.351E+01                                 F               0         X-component position of node 35 (blade 2, node 6), m
        104   -5.053E+00                                 F               0         Y-component position of node 35 (blade 2, node 6), m
        105    1.846E+02                                 F               0         Z-component position of node 35 (blade 2, node 6), m
        106    3.448E+01                                 F               0         X-component position of node 36 (blade 2, node 7), m
        107   -4.831E+00                                 F               0         Y-component position of node 36 (blade 2, node 7), m
        108    1.884E+02                                 F               0         Z-component position of node 36 (blade 2, node 7), m
        109    3.545E+01                                 F               0         X-component position of node 37 (blade 2, node 8), m
        110   -4.608E+00                                 F               0         Y-component position of node 37 (blade 2, node 8), m
        111    1.921E+02                                 F               0         Z-component position of node 37 (blade 2, node 8), m
        112    3.642E+01                                 F               0         X-component position of node 38 (blade 2, node 9), m
        113   -4.386E+00                                 F               0         Y-component position of node 38 (blade 2, node 9), m
        114    1.959E+02                                 F               0         Z-component position of node 38 (blade 2, node 9), m
        115    3.739E+01                                 F               0         X-component position of node 39 (blade 2, node 10), m
        116   -4.163E+00                                 F               0         Y-component position of node 39 (blade 2, node 10), m
        117    1.996E+02                                 F               0         Z-component position of node 39 (blade 2, node 10), m
        118    3.837E+01                                 F               0         X-component position of node 40 (blade 2, node 11), m
        119   -3.940E+00                                 F               0         Y-component position of node 40 (blade 2, node 11), m
        120    2.033E+02                                 F               0         Z-component position of node 40 (blade 2, node 11), m
        121    3.934E+01                                 F               0         X-component position of node 41 (blade 2, node 12), m
        122   -3.718E+00                                 F               0         Y-component position of node 41 (blade 2, node 12), m
        123    2.071E+02                                 F               0         Z-component position of node 41 (blade 2, node 12), m
        124    4.031E+01                                 F               0         X-component position of node 42 (blade 2, node 13), m
        125   -3.495E+00                                 F               0         Y-component position of node 42 (blade 2, node 13), m
        126    2.108E+02                                 F               0         Z-component position of node 42 (blade 2, node 13), m
        127    4.128E+01                                 F               0         X-component position of node 43 (blade 2, node 14), m
        128   -3.273E+00                                 F               0         Y-component position of node 43 (blade 2, node 14), m
        129    2.145E+02                                 F               0         Z-component position of node 43 (blade 2, node 14), m
        130    4.225E+01                                 F               0         X-component position of node 44 (blade 2, node 15), m
        131   -3.050E+00                                 F               0         Y-component position of node 44 (blade 2, node 15), m
        132    2.183E+02                                 F               0         Z-component position of node 44 (blade 2, node 15), m
        133    4.322E+01                                 F               0         X-component position of node 45 (blade 2, node 16), m
        134   -2.828E+00                                 F               0         Y-component position of node 45 (blade 2, node 16), m
        135    2.220E+02                                 F               0         Z-component position of node 45 (blade 2, node 16), m
        136    4.419E+01                                 F               0         X-component position of node 46 (blade 2, node 17), m
        137   -2.605E+00                                 F               0         Y-component position of node 46 (blade 2, node 17), m
        138    2.258E+02                                 F               0         Z-component position of node 46 (blade 2, node 17), m
        139    4.517E+01                                 F               0         X-component position of node 47 (blade 2, node 18), m
        140   -2.383E+00                                 F               0         Y-component position of node 47 (blade 2, node 18), m
        141    2.295E+02                                 F               0         Z-component position of node 47 (blade 2, node 18), m
        142    4.614E+01                                 F               0         X-component position of node 48 (blade 2, node 19), m
        143   -2.160E+00                                 F               0         Y-component position of node 48 (blade 2, node 19), m
        144    2.332E+02                                 F               0         Z-component position of node 48 (blade 2, node 19), m
        145    4.711E+01                                 F               0         X-component position of node 49 (blade 2, node 20), m
        146   -1.937E+00                                 F               0         Y-component position of node 49 (blade 2, node 20), m
        147    2.370E+02                                 F               0         Z-component position of node 49 (blade 2, node 20), m
        148    4.808E+01                                 F               0         X-component position of node 50 (blade 2, node 21), m
        149   -1.715E+00                                 F               0         Y-component position of node 50 (blade 2, node 21), m
        150    2.407E+02                                 F               0         Z-component position of node 50 (blade 2, node 21), m
        151    4.905E+01                                 F               0         X-component position of node 51 (blade 2, node 22), m
        152   -1.492E+00                                 F               0         Y-component position of node 51 (blade 2, node 22), m
        153    2.444E+02                                 F               0         Z-component position of node 51 (blade 2, node 22), m
        154    5.002E+01                                 F               0         X-component position of node 52 (blade 2, node 23), m
        155   -1.270E+00                                 F               0         Y-component position of node 52 (blade 2, node 23), m
        156    2.482E+02                                 F               0         Z-component position of node 52 (blade 2, node 23), m
        157    5.099E+01                                 F               0         X-component position of node 53 (blade 2, node 24), m
        158   -1.047E+00                                 F               0         Y-component position of node 53 (blade 2, node 24), m
        159    2.519E+02                                 F               0         Z-component position of node 53 (blade 2, node 24), m
        160    5.196E+01                                 F               0         X-component position of node 54 (blade 2, node 25), m
        161   -8.246E-01                                 F               0         Y-component position of node 54 (blade 2, node 25), m
        162    2.556E+02                                 F               0         Z-component position of node 54 (blade 2, node 25), m
        163    5.294E+01                                 F               0         X-component position of node 55 (blade 2, node 26), m
        164   -6.020E-01                                 F               0         Y-component position of node 55 (blade 2, node 26), m
        165    2.594E+02                                 F               0         Z-component position of node 55 (blade 2, node 26), m
        166    5.391E+01                                 F               0         X-component position of node 56 (blade 2, node 27), m
        167   -3.795E-01                                 F               0         Y-component position of node 56 (blade 2, node 27), m
        168    2.631E+02                                 F               0         Z-component position of node 56 (blade 2, node 27), m
        169    5.473E+01                                 F               0         X-component position of node 57 (blade 2, node 28), m
        170   -1.908E-01                                 F               0         Y-component position of node 57 (blade 2, node 28), m
        171    2.663E+02                                 F               0         Z-component position of node 57 (blade 2, node 28), m
        172    2.377E+01                                 F               0         X-component position of node 58 (blade 3, node 1), m
        173   -1.211E+01                                 F               0         Y-component position of node 58 (blade 3, node 1), m
        174    1.468E+02                                 F               0         Z-component position of node 58 (blade 3, node 1), m
        175    2.364E+01                                 F               0         X-component position of node 59 (blade 3, node 2), m
        176   -1.330E+01                                 F               0         Y-component position of node 59 (blade 3, node 2), m
        177    1.462E+02                                 F               0         Z-component position of node 59 (blade 3, node 2), m
        178    2.189E+01                                 F               0         X-component position of node 60 (blade 3, node 3), m
        179   -2.952E+01                                 F               0         Y-component position of node 60 (blade 3, node 3), m
        180    1.383E+02                                 F               0         Z-component position of node 60 (blade 3, node 3), m
        181    2.152E+01                                 F               0         X-component position of node 61 (blade 3, node 4), m
        182   -3.297E+01                                 F               0         Y-component position of node 61 (blade 3, node 4), m
        183    1.366E+02                                 F               0         Z-component position of node 61 (blade 3, node 4), m
        184    2.114E+01                                 F               0         X-component position of node 62 (blade 3, node 5), m
        185   -3.642E+01                                 F               0         Y-component position of node 62 (blade 3, node 5), m
        186    1.349E+02                                 F               0         Z-component position of node 62 (blade 3, node 5), m
        187    2.077E+01                                 F               0         X-component position of node 63 (blade 3, node 6), m
        188   -3.988E+01                                 F               0         Y-component position of node 63 (blade 3, node 6), m
        189    1.332E+02                                 F               0         Z-component position of node 63 (blade 3, node 6), m
        190    2.039E+01                                 F               0         X-component position of node 64 (blade 3, node 7), m
        191   -4.333E+01                                 F               0         Y-component position of node 64 (blade 3, node 7), m
        192    1.315E+02                                 F               0         Z-component position of node 64 (blade 3, node 7), m
        193    2.002E+01                                 F               0         X-component position of node 65 (blade 3, node 8), m
        194   -4.679E+01                                 F               0         Y-component position of node 65 (blade 3, node 8), m
        195    1.298E+02                                 F               0         Z-component position of node 65 (blade 3, node 8), m
        196    1.965E+01                                 F               0         X-component position of node 66 (blade 3, node 9), m
        197   -5.024E+01                                 F               0         Y-component position of node 66 (blade 3, node 9), m
        198    1.281E+02                                 F               0         Z-component position of node 66 (blade 3, node 9), m
        199    1.927E+01                                 F               0         X-component position of node 67 (blade 3, node 10), m
        200   -5.370E+01                                 F               0         Y-component position of node 67 (blade 3, node 10), m
        201    1.264E+02                                 F               0         Z-component position of node 67 (blade 3, node 10), m
        202    1.890E+01                                 F               0         X-component position of node 68 (blade 3, node 11), m
        203   -5.715E+01                                 F               0         Y-component position of node 68 (blade 3, node 11), m
        204    1.247E+02                                 F               0         Z-component position of node 68 (blade 3, node 11), m
        205    1.852E+01                                 F               0         X-component position of node 69 (blade 3, node 12), m
        206   -6.061E+01                                 F               0         Y-component position of node 69 (blade 3, node 12), m
        207    1.230E+02                                 F               0         Z-component position of node 69 (blade 3, node 12), m
        208    1.815E+01                                 F               0         X-component position of node 70 (blade 3, node 13), m
        209   -6.406E+01                                 F               0         Y-component position of node 70 (blade 3, node 13), m
        210    1.213E+02                                 F               0         Z-component position of node 70 (blade 3, node 13), m
        211    1.778E+01                                 F               0         X-component position of node 71 (blade 3, node 14), m