
Linearized model: Predictions were generated on 30-Jan-2024 at 18:20:32 using OpenFAST, compiled as a 64-bit application using single precision at commit v3.5.1
 linked with  NWTC Subroutine Library; ElastoDyn; InflowWind; AeroDyn; ServoDyn; HydroDyn; MAP++ (<1.20.10>, <Oct-20-2023>)

Description from the FAST input file: CCT-9 Campign 4 model. Input files to be run with OpenFAST 3.5.0. GitHub branch from Lu Wang (https://github.com/luwang00/openfast/tree/dev) compiled on March 7, 2023.

Simulation information:
   Simulation time:                   506.4250 s
   Rotor Speed:                         0.8795 rad/s
   Azimuth:                             4.5274 rad
   Wind Speed:                         10.0000 m/s
   Number of continuous states:         0
   Number of discrete states:           0
   Number of constraint states:         0
   Number of inputs:                 1746
   Number of outputs:                   4
   Jacobians included in this file?    No

Order of inputs:
     Column   Operating Point                     Rotating Frame? Derivative Order Description
   ---------- ---------------                     --------------- ---------------- -----------
          1    1.097E+01                                 F               0         Tower X translation displacement, node 1, m
          2   -1.126E+00                                 F               0         Tower Y translation displacement, node 1, m
          3   -2.947E-01                                 F               0         Tower Z translation displacement, node 1, m
          4    1.239E+01                                 F               0         Tower X translation displacement, node 2, m
          5   -1.645E+00                                 F               0         Tower Y translation displacement, node 2, m
          6   -3.875E-01                                 F               0         Tower Z translation displacement, node 2, m
          7    1.381E+01                                 F               0         Tower X translation displacement, node 3, m
          8   -2.164E+00                                 F               0         Tower Y translation displacement, node 3, m
          9   -4.802E-01                                 F               0         Tower Z translation displacement, node 3, m
         10    1.523E+01                                 F               0         Tower X translation displacement, node 4, m
         11   -2.684E+00                                 F               0         Tower Y translation displacement, node 4, m
         12   -5.729E-01                                 F               0         Tower Z translation displacement, node 4, m
         13    1.664E+01                                 F               0         Tower X translation displacement, node 5, m
         14   -3.203E+00                                 F               0         Tower Y translation displacement, node 5, m
         15   -6.657E-01                                 F               0         Tower Z translation displacement, node 5, m
         16    1.806E+01                                 F               0         Tower X translation displacement, node 6, m
         17   -3.723E+00                                 F               0         Tower Y translation displacement, node 6, m
         18   -7.584E-01                                 F               0         Tower Z translation displacement, node 6, m
         19    1.948E+01                                 F               0         Tower X translation displacement, node 7, m
         20   -4.242E+00                                 F               0         Tower Y translation displacement, node 7, m
         21   -8.511E-01                                 F               0         Tower Z translation displacement, node 7, m
         22    2.090E+01                                 F               0         Tower X translation displacement, node 8, m
         23   -4.762E+00                                 F               0         Tower Y translation displacement, node 8, m
         24   -9.439E-01                                 F               0         Tower Z translation displacement, node 8, m
         25    2.232E+01                                 F               0         Tower X translation displacement, node 9, m
         26   -5.281E+00                                 F               0         Tower Y translation displacement, node 9, m
         27   -1.037E+00                                 F               0         Tower Z translation displacement, node 9, m
         28    2.374E+01                                 F               0         Tower X translation displacement, node 10, m
         29   -5.801E+00                                 F               0         Tower Y translation displacement, node 10, m
         30   -1.129E+00                                 F               0         Tower Z translation displacement, node 10, m
         31    2.516E+01                                 F               0         Tower X translation displacement, node 11, m
         32   -6.320E+00                                 F               0         Tower Y translation displacement, node 11, m
         33   -1.222E+00                                 F               0         Tower Z translation displacement, node 11, m
         34    9.934E-01,  9.742E-03, -1.145E-01         F               0         Tower X orientation angle, node 1, rad
         35   -4.853E-03,  9.991E-01,  4.288E-02         F               0         Tower Y orientation angle, node 1, rad
         36    1.148E-01, -4.204E-02,  9.925E-01         F               0         Tower Z orientation angle, node 1, rad
         37    9.934E-01,  9.742E-03, -1.145E-01         F               0         Tower X orientation angle, node 2, rad
         38   -4.853E-03,  9.991E-01,  4.288E-02         F               0         Tower Y orientation angle, node 2, rad
         39    1.148E-01, -4.204E-02,  9.925E-01         F               0         Tower Z orientation angle, node 2, rad
         40    9.934E-01,  9.742E-03, -1.145E-01         F               0         Tower X orientation angle, node 3, rad
         41   -4.853E-03,  9.991E-01,  4.288E-02         F               0         Tower Y orientation angle, node 3, rad
         42    1.148E-01, -4.204E-02,  9.925E-01         F               0         Tower Z orientation angle, node 3, rad
         43    9.934E-01,  9.742E-03, -1.145E-01         F               0         Tower X orientation angle, node 4, rad
         44   -4.853E-03,  9.991E-01,  4.288E-02         F               0         Tower Y orientation angle, node 4, rad
         45    1.148E-01, -4.204E-02,  9.925E-01         F               0         Tower Z orientation angle, node 4, rad
         46    9.934E-01,  9.742E-03, -1.145E-01         F               0         Tower X orientation angle, node 5, rad
         47   -4.853E-03,  9.991E-01,  4.288E-02         F               0         Tower Y orientation angle, node 5, rad
         48    1.148E-01, -4.204E-02,  9.925E-01         F               0         Tower Z orientation angle, node 5, rad
         49    9.934E-01,  9.742E-03, -1.145E-01         F               0         Tower X orientation angle, node 6, rad
         50   -4.853E-03,  9.991E-01,  4.288E-02         F               0         Tower Y orientation angle, node 6, rad
         51    1.148E-01, -4.204E-02,  9.925E-01         F               0         Tower Z orientation angle, node 6, rad
         52    9.934E-01,  9.742E-03, -1.145E-01         F               0         Tower X orientation angle, node 7, rad
         53   -4.853E-03,  9.991E-01,  4.288E-02         F               0         Tower Y orientation angle, node 7, rad
         54    1.148E-01, -4.204E-02,  9.925E-01         F               0         Tower Z orientation angle, node 7, rad
         55    9.934E-01,  9.742E-03, -1.145E-01         F               0         Tower X orientation angle, node 8, rad
         56   -4.853E-03,  9.991E-01,  4.288E-02         F               0         Tower Y orientation angle, node 8, rad
         57    1.148E-01, -4.204E-02,  9.925E-01         F               0         Tower Z orientation angle, node 8, rad
         58    9.934E-01,  9.742E-03, -1.145E-01         F               0         Tower X orientation angle, node 9, rad
         59   -4.853E-03,  9.991E-01,  4.288E-02         F               0         Tower Y orientation angle, node 9, rad
         60    1.148E-01, -4.204E-02,  9.925E-01         F               0         Tower Z orientation angle, node 9, rad
         61    9.934E-01,  9.742E-03, -1.145E-01         F               0         Tower X orientation angle, node 10, rad
         62   -4.853E-03,  9.991E-01,  4.288E-02         F               0         Tower Y orientation angle, node 10, rad
         63    1.148E-01, -4.204E-02,  9.925E-01         F               0         Tower Z orientation angle, node 10, rad
         64    9.934E-01,  9.742E-03, -1.145E-01         F               0         Tower X orientation angle, node 11, rad
         65   -4.853E-03,  9.991E-01,  4.288E-02         F               0         Tower Y orientation angle, node 11, rad
         66    1.148E-01, -4.204E-02,  9.925E-01         F               0         Tower Z orientation angle, node 11, rad
         67   -4.267E-03                                 F               0         Tower X translation velocity, node 1, m/s
         68   -6.133E-03                                 F               0         Tower Y translation velocity, node 1, m/s
         69    4.140E-03                                 F               0         Tower Z translation velocity, node 1, m/s
         70   -4.084E-03                                 F               0         Tower X translation velocity, node 2, m/s
         71   -1.013E-02                                 F               0         Tower Y translation velocity, node 2, m/s
         72    3.949E-03                                 F               0         Tower Z translation velocity, node 2, m/s
         73   -3.901E-03                                 F               0         Tower X translation velocity, node 3, m/s
         74   -1.413E-02                                 F               0         Tower Y translation velocity, node 3, m/s
         75    3.759E-03                                 F               0         Tower Z translation velocity, node 3, m/s
         76   -3.717E-03                                 F               0         Tower X translation velocity, node 4, m/s
         77   -1.813E-02                                 F               0         Tower Y translation velocity, node 4, m/s
         78    3.568E-03                                 F               0         Tower Z translation velocity, node 4, m/s
         79   -3.534E-03                                 F               0         Tower X translation velocity, node 5, m/s
         80   -2.212E-02                                 F               0         Tower Y translation velocity, node 5, m/s
         81    3.377E-03                                 F               0         Tower Z translation velocity, node 5, m/s
         82   -3.351E-03                                 F               0         Tower X translation velocity, node 6, m/s
         83   -2.612E-02                                 F               0         Tower Y translation velocity, node 6, m/s
         84    3.187E-03                                 F               0         Tower Z translation velocity, node 6, m/s
         85   -3.168E-03                                 F               0         Tower X translation velocity, node 7, m/s
         86   -3.012E-02                                 F               0         Tower Y translation velocity, node 7, m/s
         87    2.996E-03                                 F               0         Tower Z translation velocity, node 7, m/s
         88   -2.984E-03                                 F               0         Tower X translation velocity, node 8, m/s
         89   -3.412E-02                                 F               0         Tower Y translation velocity, node 8, m/s
         90    2.806E-03                                 F               0         Tower Z translation velocity, node 8, m/s
         91   -2.801E-03                                 F               0         Tower X translation velocity, node 9, m/s
         92   -3.811E-02                                 F               0         Tower Y translation velocity, node 9, m/s
         93    2.615E-03                                 F               0         Tower Z translation velocity, node 9, m/s
         94   -2.618E-03                                 F               0         Tower X translation velocity, node 10, m/s
         95   -4.211E-02                                 F               0         Tower Y translation velocity, node 10, m/s
         96    2.425E-03                                 F               0         Tower Z translation velocity, node 10, m/s
         97   -2.435E-03                                 F               0         Tower X translation velocity, node 11, m/s
         98   -4.611E-02                                 F               0         Tower Y translation velocity, node 11, m/s
         99    2.234E-03                                 F               0         Tower Z translation velocity, node 11, m/s
        100    2.613E+01                                 F               0         Hub X translation displacement, node 1, m
        101   -6.755E+00                                 F               0         Hub Y translation displacement, node 1, m
        102   -4.406E-02                                 F               0         Hub Z translation displacement, node 1, m
        103    9.759E-01,  1.408E-02, -2.176E-01         F               0         Hub X orientation angle, node 1, rad
        104   -2.134E-01, -1.436E-01, -9.663E-01         F               0         Hub Y orientation angle, node 1, rad
        105   -4.487E-02,  9.895E-01, -1.372E-01         F               0         Hub Z orientation angle, node 1, rad
        106    8.586E-01                                 F               0         Hub X rotation velocity, node 1, rad/s
        107    1.240E-02                                 F               0         Hub Y rotation velocity, node 1, rad/s
        108   -1.915E-01                                 F               0         Hub Z rotation velocity, node 1, rad/s
        109    9.818E-01,  1.834E-02, -1.889E-01         F               0         Blade root 1 X orientation angle, node 1, rad
        110   -1.844E-01, -1.431E-01, -9.724E-01         F               0         Blade root 1 Y orientation angle, node 1, rad
        111   -4.487E-02,  9.895E-01, -1.372E-01         F               0         Blade root 1 Z orientation angle, node 1, rad
        112    9.735E-01, -1.348E-02, -2.284E-01         F               0         Blade root 2 X orientation angle, node 1, rad
        113    9.678E-02,  9.288E-01,  3.578E-01         F               0         Blade root 2 Y orientation angle, node 1, rad
        114    2.073E-01, -3.704E-01,  9.055E-01         F               0         Blade root 2 Z orientation angle, node 1, rad
        115    9.712E-01,  3.737E-02, -2.354E-01         F               0         Blade root 3 X orientation angle, node 1, rad
        116    1.745E-01, -7.844E-01,  5.952E-01         F               0         Blade root 3 Y orientation angle, node 1, rad
        117   -1.624E-01, -6.192E-01, -7.683E-01         F               0         Blade root 3 Z orientation angle, node 1, rad
        118    2.530E+01                                 F               0         Blade 1 X translation displacement, node 1, m
        119   -1.273E+00                                 F               0         Blade 1 Y translation displacement, node 1, m
        120   -6.314E+00                                 F               0         Blade 1 Z translation displacement, node 1, m
        121    2.510E+01                                 F               0         Blade 1 X translation displacement, node 2, m
        122    4.773E-02                                 F               0         Blade 1 Y translation displacement, node 2, m
        123   -7.824E+00                                 F               0         Blade 1 Z translation displacement, node 2, m
        124    2.239E+01                                 F               0         Blade 1 X translation displacement, node 3, m
        125    1.801E+01                                 F               0         Blade 1 Y translation displacement, node 3, m
        126   -2.837E+01                                 F               0         Blade 1 Z translation displacement, node 3, m
        127    2.181E+01                                 F               0         Blade 1 X translation displacement, node 4, m
        128    2.184E+01                                 F               0         Blade 1 Y translation displacement, node 4, m
        129   -3.274E+01                                 F               0         Blade 1 Z translation displacement, node 4, m
        130    2.124E+01                                 F               0         Blade 1 X translation displacement, node 5, m
        131    2.566E+01                                 F               0         Blade 1 Y translation displacement, node 5, m
        132   -3.712E+01                                 F               0         Blade 1 Z translation displacement, node 5, m
        133    2.066E+01                                 F               0         Blade 1 X translation displacement, node 6, m
        134    2.949E+01                                 F               0         Blade 1 Y translation displacement, node 6, m
        135   -4.150E+01                                 F               0         Blade 1 Z translation displacement, node 6, m
        136    2.008E+01                                 F               0         Blade 1 X translation displacement, node 7, m
        137    3.332E+01                                 F               0         Blade 1 Y translation displacement, node 7, m
        138   -4.588E+01                                 F               0         Blade 1 Z translation displacement, node 7, m
        139    1.950E+01                                 F               0         Blade 1 X translation displacement, node 8, m
        140    3.715E+01                                 F               0         Blade 1 Y translation displacement, node 8, m
        141   -5.025E+01                                 F               0         Blade 1 Z translation displacement, node 8, m
        142    1.892E+01                                 F               0         Blade 1 X translation displacement, node 9, m
        143    4.097E+01                                 F               0         Blade 1 Y translation displacement, node 9, m
        144   -5.463E+01                                 F               0         Blade 1 Z translation displacement, node 9, m
        145    1.835E+01                                 F               0         Blade 1 X translation displacement, node 10, m
        146    4.480E+01                                 F               0         Blade 1 Y translation displacement, node 10, m
        147   -5.901E+01                                 F               0         Blade 1 Z translation displacement, node 10, m
        148    1.777E+01                                 F               0         Blade 1 X translation displacement, node 11, m
        149    4.863E+01                                 F               0         Blade 1 Y translation displacement, node 11, m
        150   -6.338E+01                                 F               0         Blade 1 Z translation displacement, node 11, m
        151    1.719E+01                                 F               0         Blade 1 X translation displacement, node 12, m
        152    5.246E+01                                 F               0         Blade 1 Y translation displacement, node 12, m
        153   -6.776E+01                                 F               0         Blade 1 Z translation displacement, node 12, m
        154    1.661E+01                                 F               0         Blade 1 X translation displacement, node 13, m
        155    5.628E+01                                 F               0         Blade 1 Y translation displacement, node 13, m
        156   -7.214E+01                                 F               0         Blade 1 Z translation displacement, node 13, m
        157    1.604E+01                                 F               0         Blade 1 X translation displacement, node 14, m
        158    6.011E+01                                 F               0         Blade 1 Y translation displacement, node 14, m
        159   -7.651E+01                                 F               0         Blade 1 Z translation displacement, node 14, m
        160    1.546E+01                                 F               0         Blade 1 X translation displacement, node 15, m
        161    6.394E+01                                 F               0         Blade 1 Y translation displacement, node 15, m
        162   -8.089E+01                                 F               0         Blade 1 Z translation displacement, node 15, m
        163    1.488E+01                                 F               0         Blade 1 X translation displacement, node 16, m
        164    6.776E+01                                 F               0         Blade 1 Y translation displacement, node 16, m
        165   -8.527E+01                                 F               0         Blade 1 Z translation displacement, node 16, m
        166    1.430E+01                                 F               0         Blade 1 X translation displacement, node 17, m
        167    7.159E+01                                 F               0         Blade 1 Y translation displacement, node 17, m
        168   -8.965E+01                                 F               0         Blade 1 Z translation displacement, node 17, m
        169    1.372E+01                                 F               0         Blade 1 X translation displacement, node 18, m
        170    7.542E+01                                 F               0         Blade 1 Y translation displacement, node 18, m
        171   -9.402E+01                                 F               0         Blade 1 Z translation displacement, node 18, m
        172    1.315E+01                                 F               0         Blade 1 X translation displacement, node 19, m
        173    7.925E+01                                 F               0         Blade 1 Y translation displacement, node 19, m
        174   -9.840E+01                                 F               0         Blade 1 Z translation displacement, node 19, m
        175    1.257E+01                                 F               0         Blade 1 X translation displacement, node 20, m
        176    8.307E+01                                 F               0         Blade 1 Y translation displacement, node 20, m
        177   -1.028E+02                                 F               0         Blade 1 Z translation displacement, node 20, m
        178    1.199E+01                                 F               0         Blade 1 X translation displacement, node 21, m
        179    8.690E+01                                 F               0         Blade 1 Y translation displacement, node 21, m
        180   -1.072E+02                                 F               0         Blade 1 Z translation displacement, node 21, m
        181    1.141E+01                                 F               0         Blade 1 X translation displacement, node 22, m
        182    9.073E+01                                 F               0         Blade 1 Y translation displacement, node 22, m
        183   -1.115E+02                                 F               0         Blade 1 Z translation displacement, node 22, m
        184    1.084E+01                                 F               0         Blade 1 X translation displacement, node 23, m
        185    9.455E+01                                 F               0         Blade 1 Y translation displacement, node 23, m
        186   -1.159E+02                                 F               0         Blade 1 Z translation displacement, node 23, m
        187    1.026E+01                                 F               0         Blade 1 X translation displacement, node 24, m
        188    9.838E+01                                 F               0         Blade 1 Y translation displacement, node 24, m
        189   -1.203E+02                                 F               0         Blade 1 Z translation displacement, node 24, m
        190    9.679E+00                                 F               0         Blade 1 X translation displacement, node 25, m
        191    1.022E+02                                 F               0         Blade 1 Y translation displacement, node 25, m
        192   -1.247E+02                                 F               0         Blade 1 Z translation displacement, node 25, m
        193    9.102E+00                                 F               0         Blade 1 X translation displacement, node 26, m
        194    1.060E+02                                 F               0         Blade 1 Y translation displacement, node 26, m
        195   -1.290E+02                                 F               0         Blade 1 Z translation displacement, node 26, m
        196    8.524E+00                                 F               0         Blade 1 X translation displacement, node 27, m
        197    1.099E+02                                 F               0         Blade 1 Y translation displacement, node 27, m
        198   -1.334E+02                                 F               0         Blade 1 Z translation displacement, node 27, m
        199    8.034E+00                                 F               0         Blade 1 X translation displacement, node 28, m
        200    1.131E+02                                 F               0         Blade 1 Y translation displacement, node 28, m
        201   -1.371E+02                                 F               0         Blade 1 Z translation displacement, node 28, m
        202    9.579E-01,  8.160E-02,  2.753E-01         F               0         Blade 1 X orientation angle, node 1, rad
        203    2.836E-01, -1.190E-01, -9.515E-01         F               0         Blade 1 Y orientation angle, node 1, rad
        204   -4.487E-02,  9.895E-01, -1.372E-01         F               0         Blade 1 Z orientation angle, node 1, rad
        205    9.579E-01,  8.160E-02,  2.753E-01         F               0         Blade 1 X orientation angle, node 2, rad
        206    2.836E-01, -1.190E-01, -9.515E-01         F               0         Blade 1 Y orientation angle, node 2, rad
        207   -4.487E-02,  9.895E-01, -1.372E-01         F               0         Blade 1 Z orientation angle, node 2, rad
        208    9.978E-01,  5.106E-02,  4.195E-02         F               0         Blade 1 X orientation angle, node 3, rad
        209    4.852E-02, -1.350E-01, -9.897E-01         F               0         Blade 1 Y orientation angle, node 3, rad
        210   -4.487E-02,  9.895E-01, -1.372E-01         F               0         Blade 1 Z orientation angle, node 3, rad
        211    9.990E-01,  4.531E-02,  1.289E-04         F               0         Blade 1 X orientation angle, node 4, rad
        212    6.343E-03, -1.370E-01, -9.905E-01         F               0         Blade 1 Y orientation angle, node 4, rad
        213   -4.487E-02,  9.895E-01, -1.372E-01         F               0         Blade 1 Z orientation angle, node 4, rad
        214    9.986E-01,  4.075E-02, -3.271E-02         F               0         Blade 1 X orientation angle, node 5, rad
        215   -2.678E-02, -1.384E-01, -9.900E-01         F               0         Blade 1 Y orientation angle, node 5, rad
        216   -4.487E-02,  9.895E-01, -1.372E-01         F               0         Blade 1 Z orientation angle, node 5, rad
        217    9.976E-01,  3.706E-02, -5.896E-02         F               0         Blade 1 X orientation angle, node 6, rad
        218   -5.326E-02, -1.395E-01, -9.888E-01         F               0         Blade 1 Y orientation angle, node 6, rad
        219   -4.487E-02,  9.895E-01, -1.372E-01         F               0         Blade 1 Z orientation angle, node 6, rad
        220    9.962E-01,  3.401E-02, -8.052E-02         F               0         Blade 1 X orientation angle, node 7, rad
        221   -7.501E-02, -1.403E-01, -9.873E-01         F               0         Blade 1 Y orientation angle, node 7, rad
        222   -4.487E-02,  9.895E-01, -1.372E-01         F               0         Blade 1 Z orientation angle, node 7, rad
        223    9.946E-01,  3.146E-02, -9.842E-02         F               0         Blade 1 X orientation angle, node 8, rad
        224   -9.308E-02, -1.408E-01, -9.856E-01         F               0         Blade 1 Y orientation angle, node 8, rad
        225   -4.487E-02,  9.895E-01, -1.372E-01         F               0         Blade 1 Z orientation angle, node 8, rad
        226    9.931E-01,  2.929E-02, -1.136E-01         F               0         Blade 1 X orientation angle, node 9, rad
        227   -1.083E-01, -1.413E-01, -9.840E-01         F               0         Blade 1 Y orientation angle, node 9, rad