
Linearized model: Predictions were generated on 12-Feb-2024 at 18:31:58 using OpenFAST, compiled as a 64-bit application using single precision at commit v3.5.1
 linked with  NWTC Subroutine Library; ElastoDyn; InflowWind; AeroDyn; ServoDyn; HydroDyn; MAP++ (<1.20.10>, <Oct-20-2023>)

Description from the FAST input file: CCT-9 Campign 4 model. Input files to be run with OpenFAST 3.5.0. GitHub branch from Lu Wang (https://github.com/luwang00/openfast/tree/dev) compiled on March 7, 2023.

Simulation information:
   Simulation time:                  1003.9750 s
   Rotor Speed:                         1.0468 rad/s
   Azimuth:                             3.8261 rad
   Wind Speed:                         12.0000 m/s
   Number of continuous states:        14
   Number of discrete states:           0
   Number of constraint states:         0
   Number of inputs:                 3988
   Number of outputs:                  42
   Jacobians included in this file?    No

Order of continuous states:
   Row/Column Operating Point                     Rotating Frame? Derivative Order Description
   ---------- ---------------                     --------------- ---------------- -----------
          1    1.242E+01                                 F               2         ED Platform horizontal surge translation DOF (internal DOF index = DOF_Sg), m
          2   -2.299E-01                                 F               2         ED Platform horizontal sway translation DOF (internal DOF index = DOF_Sw), m
          3   -2.473E-01                                 F               2         ED Platform vertical heave translation DOF (internal DOF index = DOF_Hv), m
          4    4.668E-02                                 F               2         ED Platform roll tilt rotation DOF (internal DOF index = DOF_R), rad
          5    1.524E-01                                 F               2         ED Platform pitch tilt rotation DOF (internal DOF index = DOF_P), rad
          6    1.147E-02                                 F               2         ED Platform yaw rotation DOF (internal DOF index = DOF_Y), rad
          7    2.255E+00                                 F               2         ED Variable speed generator DOF (internal DOF index = DOF_GeAz), rad
          8    1.293E-04                                 F               2         ED First time derivative of Platform horizontal surge translation DOF (internal DOF index = DOF_Sg), m/s
          9   -2.456E-04                                 F               2         ED First time derivative of Platform horizontal sway translation DOF (internal DOF index = DOF_Sw), m/s
         10    2.768E-03                                 F               2         ED First time derivative of Platform vertical heave translation DOF (internal DOF index = DOF_Hv), m/s
         11   -6.182E-05                                 F               2         ED First time derivative of Platform roll tilt rotation DOF (internal DOF index = DOF_R), rad/s
         12   -3.510E-05                                 F               2         ED First time derivative of Platform pitch tilt rotation DOF (internal DOF index = DOF_P), rad/s
         13    1.324E-04                                 F               2         ED First time derivative of Platform yaw rotation DOF (internal DOF index = DOF_Y), rad/s
         14    1.047E+00                                 F               2         ED First time derivative of Variable speed generator DOF (internal DOF index = DOF_GeAz), rad/s

Order of continuous state derivatives:
   Row/Column Operating Point                     Rotating Frame? Derivative Order Description
   ---------- ---------------                     --------------- ---------------- -----------
          1    1.293E-04                                 F               2         First time derivative of ED Platform horizontal surge translation DOF (internal DOF index = DOF_Sg), m/s
          2   -2.456E-04                                 F               2         First time derivative of ED Platform horizontal sway translation DOF (internal DOF index = DOF_Sw), m/s
          3    2.768E-03                                 F               2         First time derivative of ED Platform vertical heave translation DOF (internal DOF index = DOF_Hv), m/s
          4   -6.182E-05                                 F               2         First time derivative of ED Platform roll tilt rotation DOF (internal DOF index = DOF_R), rad/s
          5   -3.510E-05                                 F               2         First time derivative of ED Platform pitch tilt rotation DOF (internal DOF index = DOF_P), rad/s
          6    1.324E-04                                 F               2         First time derivative of ED Platform yaw rotation DOF (internal DOF index = DOF_Y), rad/s
          7    1.047E+00                                 F               2         First time derivative of ED Variable speed generator DOF (internal DOF index = DOF_GeAz), rad/s
          8    7.280E-06                                 F               2         First time derivative of ED First time derivative of Platform horizontal surge translation DOF (internal DOF index = DOF_Sg), m/s/s
          9   -9.073E-05                                 F               2         First time derivative of ED First time derivative of Platform horizontal sway translation DOF (internal DOF index = DOF_Sw), m/s/s
         10    1.042E-03                                 F               2         First time derivative of ED First time derivative of Platform vertical heave translation DOF (internal DOF index = DOF_Hv), m/s/s
         11   -1.561E-04                                 F               2         First time derivative of ED First time derivative of Platform roll tilt rotation DOF (internal DOF index = DOF_R), rad/s/s
         12   -1.321E-06                                 F               2         First time derivative of ED First time derivative of Platform pitch tilt rotation DOF (internal DOF index = DOF_P), rad/s/s
         13    4.646E-05                                 F               2         First time derivative of ED First time derivative of Platform yaw rotation DOF (internal DOF index = DOF_Y), rad/s/s
         14    2.427E-04                                 F               2         First time derivative of ED First time derivative of Variable speed generator DOF (internal DOF index = DOF_GeAz), rad/s/s

Order of inputs:
     Column   Operating Point                     Rotating Frame? Derivative Order Description
   ---------- ---------------                     --------------- ---------------- -----------
          1   -1.080E+01                                 F               0         IfW X-component position of node 1 (hub), m
          2    0.000E+00                                 F               0         IfW Y-component position of node 1 (hub), m
          3    1.497E+02                                 F               0         IfW Z-component position of node 1 (hub), m
          4    2.320E+01                                 F               0         IfW X-component position of node 2 (blade 1, node 1), m
          5   -3.479E+00                                 F               0         IfW Y-component position of node 2 (blade 1, node 1), m
          6    1.453E+02                                 F               0         IfW Z-component position of node 2 (blade 1, node 1), m
          7    2.293E+01                                 F               0         IfW X-component position of node 3 (blade 1, node 2), m
          8   -2.591E+00                                 F               0         IfW Y-component position of node 3 (blade 1, node 2), m
          9    1.443E+02                                 F               0         IfW Z-component position of node 3 (blade 1, node 2), m
         10    1.928E+01                                 F               0         IfW X-component position of node 4 (blade 1, node 3), m
         11    9.484E+00                                 F               0         IfW Y-component position of node 4 (blade 1, node 3), m
         12    1.313E+02                                 F               0         IfW Z-component position of node 4 (blade 1, node 3), m
         13    1.850E+01                                 F               0         IfW X-component position of node 5 (blade 1, node 4), m
         14    1.206E+01                                 F               0         IfW Y-component position of node 5 (blade 1, node 4), m
         15    1.285E+02                                 F               0         IfW Z-component position of node 5 (blade 1, node 4), m
         16    1.772E+01                                 F               0         IfW X-component position of node 6 (blade 1, node 5), m
         17    1.463E+01                                 F               0         IfW Y-component position of node 6 (blade 1, node 5), m
         18    1.257E+02                                 F               0         IfW Z-component position of node 6 (blade 1, node 5), m
         19    1.694E+01                                 F               0         IfW X-component position of node 7 (blade 1, node 6), m
         20    1.720E+01                                 F               0         IfW Y-component position of node 7 (blade 1, node 6), m
         21    1.229E+02                                 F               0         IfW Z-component position of node 7 (blade 1, node 6), m
         22    1.616E+01                                 F               0         IfW X-component position of node 8 (blade 1, node 7), m
         23    1.978E+01                                 F               0         IfW Y-component position of node 8 (blade 1, node 7), m
         24    1.201E+02                                 F               0         IfW Z-component position of node 8 (blade 1, node 7), m
         25    1.539E+01                                 F               0         IfW X-component position of node 9 (blade 1, node 8), m
         26    2.235E+01                                 F               0         IfW Y-component position of node 9 (blade 1, node 8), m
         27    1.173E+02                                 F               0         IfW Z-component position of node 9 (blade 1, node 8), m
         28    1.461E+01                                 F               0         IfW X-component position of node 10 (blade 1, node 9), m
         29    2.492E+01                                 F               0         IfW Y-component position of node 10 (blade 1, node 9), m
         30    1.146E+02                                 F               0         IfW Z-component position of node 10 (blade 1, node 9), m
         31    1.383E+01                                 F               0         IfW X-component position of node 11 (blade 1, node 10), m
         32    2.749E+01                                 F               0         IfW Y-component position of node 11 (blade 1, node 10), m
         33    1.118E+02                                 F               0         IfW Z-component position of node 11 (blade 1, node 10), m
         34    1.305E+01                                 F               0         IfW X-component position of node 12 (blade 1, node 11), m
         35    3.007E+01                                 F               0         IfW Y-component position of node 12 (blade 1, node 11), m
         36    1.090E+02                                 F               0         IfW Z-component position of node 12 (blade 1, node 11), m
         37    1.227E+01                                 F               0         IfW X-component position of node 13 (blade 1, node 12), m
         38    3.264E+01                                 F               0         IfW Y-component position of node 13 (blade 1, node 12), m
         39    1.062E+02                                 F               0         IfW Z-component position of node 13 (blade 1, node 12), m
         40    1.150E+01                                 F               0         IfW X-component position of node 14 (blade 1, node 13), m
         41    3.521E+01                                 F               0         IfW Y-component position of node 14 (blade 1, node 13), m
         42    1.034E+02                                 F               0         IfW Z-component position of node 14 (blade 1, node 13), m
         43    1.072E+01                                 F               0         IfW X-component position of node 15 (blade 1, node 14), m
         44    3.778E+01                                 F               0         IfW Y-component position of node 15 (blade 1, node 14), m
         45    1.007E+02                                 F               0         IfW Z-component position of node 15 (blade 1, node 14), m
         46    9.940E+00                                 F               0         IfW X-component position of node 16 (blade 1, node 15), m
         47    4.036E+01                                 F               0         IfW Y-component position of node 16 (blade 1, node 15), m
         48    9.788E+01                                 F               0         IfW Z-component position of node 16 (blade 1, node 15), m
         49    9.162E+00                                 F               0         IfW X-component position of node 17 (blade 1, node 16), m
         50    4.293E+01                                 F               0         IfW Y-component position of node 17 (blade 1, node 16), m
         51    9.510E+01                                 F               0         IfW Z-component position of node 17 (blade 1, node 16), m
         52    8.384E+00                                 F               0         IfW X-component position of node 18 (blade 1, node 17), m
         53    4.550E+01                                 F               0         IfW Y-component position of node 18 (blade 1, node 17), m
         54    9.232E+01                                 F               0         IfW Z-component position of node 18 (blade 1, node 17), m
         55    7.606E+00                                 F               0         IfW X-component position of node 19 (blade 1, node 18), m
         56    4.808E+01                                 F               0         IfW Y-component position of node 19 (blade 1, node 18), m
         57    8.954E+01                                 F               0         IfW Z-component position of node 19 (blade 1, node 18), m
         58    6.828E+00                                 F               0         IfW X-component position of node 20 (blade 1, node 19), m
         59    5.065E+01                                 F               0         IfW Y-component position of node 20 (blade 1, node 19), m
         60    8.676E+01                                 F               0         IfW Z-component position of node 20 (blade 1, node 19), m
         61    6.050E+00                                 F               0         IfW X-component position of node 21 (blade 1, node 20), m
         62    5.322E+01                                 F               0         IfW Y-component position of node 21 (blade 1, node 20), m
         63    8.397E+01                                 F               0         IfW Z-component position of node 21 (blade 1, node 20), m
         64    5.272E+00                                 F               0         IfW X-component position of node 22 (blade 1, node 21), m
         65    5.579E+01                                 F               0         IfW Y-component position of node 22 (blade 1, node 21), m
         66    8.119E+01                                 F               0         IfW Z-component position of node 22 (blade 1, node 21), m
         67    4.494E+00                                 F               0         IfW X-component position of node 23 (blade 1, node 22), m
         68    5.837E+01                                 F               0         IfW Y-component position of node 23 (blade 1, node 22), m
         69    7.841E+01                                 F               0         IfW Z-component position of node 23 (blade 1, node 22), m
         70    3.716E+00                                 F               0         IfW X-component position of node 24 (blade 1, node 23), m
         71    6.094E+01                                 F               0         IfW Y-component position of node 24 (blade 1, node 23), m
         72    7.563E+01                                 F               0         IfW Z-component position of node 24 (blade 1, node 23), m
         73    2.938E+00                                 F               0         IfW X-component position of node 25 (blade 1, node 24), m
         74    6.351E+01                                 F               0         IfW Y-component position of node 25 (blade 1, node 24), m
         75    7.285E+01                                 F               0         IfW Z-component position of node 25 (blade 1, node 24), m
         76    2.160E+00                                 F               0         IfW X-component position of node 26 (blade 1, node 25), m
         77    6.609E+01                                 F               0         IfW Y-component position of node 26 (blade 1, node 25), m
         78    7.007E+01                                 F               0         IfW Z-component position of node 26 (blade 1, node 25), m
         79    1.382E+00                                 F               0         IfW X-component position of node 27 (blade 1, node 26), m
         80    6.866E+01                                 F               0         IfW Y-component position of node 27 (blade 1, node 26), m
         81    6.729E+01                                 F               0         IfW Z-component position of node 27 (blade 1, node 26), m
         82    6.037E-01                                 F               0         IfW X-component position of node 28 (blade 1, node 27), m
         83    7.123E+01                                 F               0         IfW Y-component position of node 28 (blade 1, node 27), m
         84    6.451E+01                                 F               0         IfW Z-component position of node 28 (blade 1, node 27), m
         85   -5.584E-02                                 F               0         IfW X-component position of node 29 (blade 1, node 28), m
         86    7.341E+01                                 F               0         IfW Y-component position of node 29 (blade 1, node 28), m
         87    6.215E+01                                 F               0         IfW Z-component position of node 29 (blade 1, node 28), m
         88    2.561E+01                                 F               0         IfW X-component position of node 30 (blade 2, node 1), m
         89   -5.426E+00                                 F               0         IfW Y-component position of node 30 (blade 2, node 1), m
         90    1.543E+02                                 F               0         IfW Z-component position of node 30 (blade 2, node 1), m
         91    2.592E+01                                 F               0         IfW X-component position of node 31 (blade 2, node 2), m
         92   -5.007E+00                                 F               0         IfW Y-component position of node 31 (blade 2, node 2), m
         93    1.556E+02                                 F               0         IfW Z-component position of node 31 (blade 2, node 2), m
         94    3.017E+01                                 F               0         IfW X-component position of node 32 (blade 2, node 3), m
         95    6.898E-01                                 F               0         IfW Y-component position of node 32 (blade 2, node 3), m
         96    1.723E+02                                 F               0         IfW Z-component position of node 32 (blade 2, node 3), m
         97    3.107E+01                                 F               0         IfW X-component position of node 33 (blade 2, node 4), m
         98    1.903E+00                                 F               0         IfW Y-component position of node 33 (blade 2, node 4), m
         99    1.758E+02                                 F               0         IfW Z-component position of node 33 (blade 2, node 4), m
        100    3.198E+01                                 F               0         IfW X-component position of node 34 (blade 2, node 5), m
        101    3.117E+00                                 F               0         IfW Y-component position of node 34 (blade 2, node 5), m
        102    1.794E+02                                 F               0         IfW Z-component position of node 34 (blade 2, node 5), m
        103    3.288E+01                                 F               0         IfW X-component position of node 35 (blade 2, node 6), m
        104    4.331E+00                                 F               0         IfW Y-component position of node 35 (blade 2, node 6), m
        105    1.830E+02                                 F               0         IfW Z-component position of node 35 (blade 2, node 6), m
        106    3.379E+01                                 F               0         IfW X-component position of node 36 (blade 2, node 7), m
        107    5.545E+00                                 F               0         IfW Y-component position of node 36 (blade 2, node 7), m
        108    1.865E+02                                 F               0         IfW Z-component position of node 36 (blade 2, node 7), m
        109    3.469E+01                                 F               0         IfW X-component position of node 37 (blade 2, node 8), m
        110    6.759E+00                                 F               0         IfW Y-component position of node 37 (blade 2, node 8), m
        111    1.901E+02                                 F               0         IfW Z-component position of node 37 (blade 2, node 8), m
        112    3.560E+01                                 F               0         IfW X-component position of node 38 (blade 2, node 9), m
        113    7.972E+00                                 F               0         IfW Y-component position of node 38 (blade 2, node 9), m
        114    1.936E+02                                 F               0         IfW Z-component position of node 38 (blade 2, node 9), m
        115    3.650E+01                                 F               0         IfW X-component position of node 39 (blade 2, node 10), m
        116    9.186E+00                                 F               0         IfW Y-component position of node 39 (blade 2, node 10), m
        117    1.972E+02                                 F               0         IfW Z-component position of node 39 (blade 2, node 10), m
        118    3.741E+01                                 F               0         IfW X-component position of node 40 (blade 2, node 11), m
        119    1.040E+01                                 F               0         IfW Y-component position of node 40 (blade 2, node 11), m
        120    2.008E+02                                 F               0         IfW Z-component position of node 40 (blade 2, node 11), m
        121    3.831E+01                                 F               0         IfW X-component position of node 41 (blade 2, node 12), m
        122    1.161E+01                                 F               0         IfW Y-component position of node 41 (blade 2, node 12), m
        123    2.043E+02                                 F               0         IfW Z-component position of node 41 (blade 2, node 12), m
        124    3.922E+01                                 F               0         IfW X-component position of node 42 (blade 2, node 13), m
        125    1.283E+01                                 F               0         IfW Y-component position of node 42 (blade 2, node 13), m
        126    2.079E+02                                 F               0         IfW Z-component position of node 42 (blade 2, node 13), m
        127    4.012E+01                                 F               0         IfW X-component position of node 43 (blade 2, node 14), m
        128    1.404E+01                                 F               0         IfW Y-component position of node 43 (blade 2, node 14), m
        129    2.114E+02                                 F               0         IfW Z-component position of node 43 (blade 2, node 14), m
        130    4.103E+01                                 F               0         IfW X-component position of node 44 (blade 2, node 15), m
        131    1.525E+01                                 F               0         IfW Y-component position of node 44 (blade 2, node 15), m
        132    2.150E+02                                 F               0         IfW Z-component position of node 44 (blade 2, node 15), m
        133    4.193E+01                                 F               0         IfW X-component position of node 45 (blade 2, node 16), m
        134    1.647E+01                                 F               0         IfW Y-component position of node 45 (blade 2, node 16), m
        135    2.185E+02                                 F               0         IfW Z-component position of node 45 (blade 2, node 16), m
        136    4.284E+01                                 F               0         IfW X-component position of node 46 (blade 2, node 17), m
        137    1.768E+01                                 F               0         IfW Y-component position of node 46 (blade 2, node 17), m
        138    2.221E+02                                 F               0         IfW Z-component position of node 46 (blade 2, node 17), m
        139    4.374E+01                                 F               0         IfW X-component position of node 47 (blade 2, node 18), m
        140    1.890E+01                                 F               0         IfW Y-component position of node 47 (blade 2, node 18), m
        141    2.257E+02                                 F               0         IfW Z-component position of node 47 (blade 2, node 18), m
        142    4.465E+01                                 F               0         IfW X-component position of node 48 (blade 2, node 19), m
        143    2.011E+01                                 F               0         IfW Y-component position of node 48 (blade 2, node 19), m
        144    2.292E+02                                 F               0         IfW Z-component position of node 48 (blade 2, node 19), m
        145    4.555E+01                                 F               0         IfW X-component position of node 49 (blade 2, node 20), m
        146    2.132E+01                                 F               0         IfW Y-component position of node 49 (blade 2, node 20), m
        147    2.328E+02                                 F               0         IfW Z-component position of node 49 (blade 2, node 20), m
        148    4.646E+01                                 F               0         IfW X-component position of node 50 (blade 2, node 21), m
        149    2.254E+01                                 F               0         IfW Y-component position of node 50 (blade 2, node 21), m
        150    2.363E+02                                 F               0         IfW Z-component position of node 50 (blade 2, node 21), m
        151    4.736E+01                                 F               0         IfW X-component position of node 51 (blade 2, node 22), m
        152    2.375E+01                                 F               0         IfW Y-component position of node 51 (blade 2, node 22), m
        153    2.399E+02                                 F               0         IfW Z-component position of node 51 (blade 2, node 22), m
        154    4.827E+01                                 F               0         IfW X-component position of node 52 (blade 2, node 23), m
        155    2.496E+01                                 F               0         IfW Y-component position of node 52 (blade 2, node 23), m
        156    2.435E+02                                 F               0         IfW Z-component position of node 52 (blade 2, node 23), m
        157    4.917E+01                                 F               0         IfW X-component position of node 53 (blade 2, node 24), m
        158    2.618E+01                                 F               0         IfW Y-component position of node 53 (blade 2, node 24), m
        159    2.470E+02                                 F               0         IfW Z-component position of node 53 (blade 2, node 24), m
        160    5.008E+01                                 F               0         IfW X-component position of node 54 (blade 2, node 25), m
        161    2.739E+01                                 F               0         IfW Y-component position of node 54 (blade 2, node 25), m
        162    2.506E+02                                 F               0         IfW Z-component position of node 54 (blade 2, node 25), m
        163    5.098E+01                                 F               0         IfW X-component position of node 55 (blade 2, node 26), m
        164    2.861E+01                                 F               0         IfW Y-component position of node 55 (blade 2, node 26), m
        165    2.541E+02                                 F               0         IfW Z-component position of node 55 (blade 2, node 26), m