
Linearized model: Predictions were generated on 12-Feb-2024 at 18:31:58 using OpenFAST, compiled as a 64-bit application using single precision at commit v3.5.1
 linked with  NWTC Subroutine Library; ElastoDyn; InflowWind; AeroDyn; ServoDyn; HydroDyn; MAP++ (<1.20.10>, <Oct-20-2023>)

Description from the FAST input file: CCT-9 Campign 4 model. Input files to be run with OpenFAST 3.5.0. GitHub branch from Lu Wang (https://github.com/luwang00/openfast/tree/dev) compiled on March 7, 2023.

Simulation information:
   Simulation time:                  1008.4500 s
   Rotor Speed:                         1.0473 rad/s
   Azimuth:                             2.2284 rad
   Wind Speed:                         12.0000 m/s
   Number of continuous states:         0
   Number of discrete states:           0
   Number of constraint states:         0
   Number of inputs:                 1746
   Number of outputs:                   4
   Jacobians included in this file?    No

Order of inputs:
     Column   Operating Point                     Rotating Frame? Derivative Order Description
   ---------- ---------------                     --------------- ---------------- -----------
          1    1.518E+01                                 F               0         Tower X translation displacement, node 1, m
          2   -1.020E+00                                 F               0         Tower Y translation displacement, node 1, m
          3   -4.546E-01                                 F               0         Tower Z translation displacement, node 1, m
          4    1.704E+01                                 F               0         Tower X translation displacement, node 2, m
          5   -1.553E+00                                 F               0         Tower Y translation displacement, node 2, m
          6   -6.072E-01                                 F               0         Tower Z translation displacement, node 2, m
          7    1.890E+01                                 F               0         Tower X translation displacement, node 3, m
          8   -2.087E+00                                 F               0         Tower Y translation displacement, node 3, m
          9   -7.599E-01                                 F               0         Tower Z translation displacement, node 3, m
         10    2.076E+01                                 F               0         Tower X translation displacement, node 4, m
         11   -2.621E+00                                 F               0         Tower Y translation displacement, node 4, m
         12   -9.125E-01                                 F               0         Tower Z translation displacement, node 4, m
         13    2.262E+01                                 F               0         Tower X translation displacement, node 5, m
         14   -3.155E+00                                 F               0         Tower Y translation displacement, node 5, m
         15   -1.065E+00                                 F               0         Tower Z translation displacement, node 5, m
         16    2.449E+01                                 F               0         Tower X translation displacement, node 6, m
         17   -3.689E+00                                 F               0         Tower Y translation displacement, node 6, m
         18   -1.218E+00                                 F               0         Tower Z translation displacement, node 6, m
         19    2.635E+01                                 F               0         Tower X translation displacement, node 7, m
         20   -4.223E+00                                 F               0         Tower Y translation displacement, node 7, m
         21   -1.370E+00                                 F               0         Tower Z translation displacement, node 7, m
         22    2.821E+01                                 F               0         Tower X translation displacement, node 8, m
         23   -4.757E+00                                 F               0         Tower Y translation displacement, node 8, m
         24   -1.523E+00                                 F               0         Tower Z translation displacement, node 8, m
         25    3.007E+01                                 F               0         Tower X translation displacement, node 9, m
         26   -5.291E+00                                 F               0         Tower Y translation displacement, node 9, m
         27   -1.676E+00                                 F               0         Tower Z translation displacement, node 9, m
         28    3.193E+01                                 F               0         Tower X translation displacement, node 10, m
         29   -5.825E+00                                 F               0         Tower Y translation displacement, node 10, m
         30   -1.828E+00                                 F               0         Tower Z translation displacement, node 10, m
         31    3.379E+01                                 F               0         Tower X translation displacement, node 11, m
         32   -6.359E+00                                 F               0         Tower Y translation displacement, node 11, m
         33   -1.981E+00                                 F               0         Tower Z translation displacement, node 11, m
         34    9.885E-01,  1.559E-02, -1.501E-01         F               0         Tower X orientation angle, node 1, rad
         35   -8.912E-03,  9.989E-01,  4.507E-02         F               0         Tower Y orientation angle, node 1, rad
         36    1.506E-01, -4.322E-02,  9.876E-01         F               0         Tower Z orientation angle, node 1, rad
         37    9.885E-01,  1.559E-02, -1.501E-01         F               0         Tower X orientation angle, node 2, rad
         38   -8.912E-03,  9.989E-01,  4.507E-02         F               0         Tower Y orientation angle, node 2, rad
         39    1.506E-01, -4.322E-02,  9.876E-01         F               0         Tower Z orientation angle, node 2, rad
         40    9.885E-01,  1.559E-02, -1.501E-01         F               0         Tower X orientation angle, node 3, rad
         41   -8.912E-03,  9.989E-01,  4.507E-02         F               0         Tower Y orientation angle, node 3, rad
         42    1.506E-01, -4.322E-02,  9.876E-01         F               0         Tower Z orientation angle, node 3, rad
         43    9.885E-01,  1.559E-02, -1.501E-01         F               0         Tower X orientation angle, node 4, rad
         44   -8.912E-03,  9.989E-01,  4.507E-02         F               0         Tower Y orientation angle, node 4, rad
         45    1.506E-01, -4.322E-02,  9.876E-01         F               0         Tower Z orientation angle, node 4, rad
         46    9.885E-01,  1.559E-02, -1.501E-01         F               0         Tower X orientation angle, node 5, rad
         47   -8.912E-03,  9.989E-01,  4.507E-02         F               0         Tower Y orientation angle, node 5, rad
         48    1.506E-01, -4.322E-02,  9.876E-01         F               0         Tower Z orientation angle, node 5, rad
         49    9.885E-01,  1.559E-02, -1.501E-01         F               0         Tower X orientation angle, node 6, rad
         50   -8.912E-03,  9.989E-01,  4.507E-02         F               0         Tower Y orientation angle, node 6, rad
         51    1.506E-01, -4.322E-02,  9.876E-01         F               0         Tower Z orientation angle, node 6, rad
         52    9.885E-01,  1.559E-02, -1.501E-01         F               0         Tower X orientation angle, node 7, rad
         53   -8.912E-03,  9.989E-01,  4.507E-02         F               0         Tower Y orientation angle, node 7, rad
         54    1.506E-01, -4.322E-02,  9.876E-01         F               0         Tower Z orientation angle, node 7, rad
         55    9.885E-01,  1.559E-02, -1.501E-01         F               0         Tower X orientation angle, node 8, rad
         56   -8.912E-03,  9.989E-01,  4.507E-02         F               0         Tower Y orientation angle, node 8, rad
         57    1.506E-01, -4.322E-02,  9.876E-01         F               0         Tower Z orientation angle, node 8, rad
         58    9.885E-01,  1.559E-02, -1.501E-01         F               0         Tower X orientation angle, node 9, rad
         59   -8.912E-03,  9.989E-01,  4.507E-02         F               0         Tower Y orientation angle, node 9, rad
         60    1.506E-01, -4.322E-02,  9.876E-01         F               0         Tower Z orientation angle, node 9, rad
         61    9.885E-01,  1.559E-02, -1.501E-01         F               0         Tower X orientation angle, node 10, rad
         62   -8.912E-03,  9.989E-01,  4.507E-02         F               0         Tower Y orientation angle, node 10, rad
         63    1.506E-01, -4.322E-02,  9.876E-01         F               0         Tower Z orientation angle, node 10, rad
         64    9.885E-01,  1.559E-02, -1.501E-01         F               0         Tower X orientation angle, node 11, rad
         65   -8.912E-03,  9.989E-01,  4.507E-02         F               0         Tower Y orientation angle, node 11, rad
         66    1.506E-01, -4.322E-02,  9.876E-01         F               0         Tower Z orientation angle, node 11, rad
         67    7.515E-04                                 F               0         Tower X translation velocity, node 1, m/s
         68    1.509E-02                                 F               0         Tower Y translation velocity, node 1, m/s
         69    5.586E-03                                 F               0         Tower Z translation velocity, node 1, m/s
         70    8.132E-04                                 F               0         Tower X translation velocity, node 2, m/s
         71    2.452E-02                                 F               0         Tower Y translation velocity, node 2, m/s
         72    5.989E-03                                 F               0         Tower Z translation velocity, node 2, m/s
         73    8.749E-04                                 F               0         Tower X translation velocity, node 3, m/s
         74    3.394E-02                                 F               0         Tower Y translation velocity, node 3, m/s
         75    6.392E-03                                 F               0         Tower Z translation velocity, node 3, m/s
         76    9.366E-04                                 F               0         Tower X translation velocity, node 4, m/s
         77    4.337E-02                                 F               0         Tower Y translation velocity, node 4, m/s
         78    6.795E-03                                 F               0         Tower Z translation velocity, node 4, m/s
         79    9.983E-04                                 F               0         Tower X translation velocity, node 5, m/s
         80    5.279E-02                                 F               0         Tower Y translation velocity, node 5, m/s
         81    7.198E-03                                 F               0         Tower Z translation velocity, node 5, m/s
         82    1.060E-03                                 F               0         Tower X translation velocity, node 6, m/s
         83    6.222E-02                                 F               0         Tower Y translation velocity, node 6, m/s
         84    7.601E-03                                 F               0         Tower Z translation velocity, node 6, m/s
         85    1.122E-03                                 F               0         Tower X translation velocity, node 7, m/s
         86    7.164E-02                                 F               0         Tower Y translation velocity, node 7, m/s
         87    8.004E-03                                 F               0         Tower Z translation velocity, node 7, m/s
         88    1.183E-03                                 F               0         Tower X translation velocity, node 8, m/s
         89    8.107E-02                                 F               0         Tower Y translation velocity, node 8, m/s
         90    8.407E-03                                 F               0         Tower Z translation velocity, node 8, m/s
         91    1.245E-03                                 F               0         Tower X translation velocity, node 9, m/s
         92    9.050E-02                                 F               0         Tower Y translation velocity, node 9, m/s
         93    8.810E-03                                 F               0         Tower Z translation velocity, node 9, m/s
         94    1.307E-03                                 F               0         Tower X translation velocity, node 10, m/s
         95    9.992E-02                                 F               0         Tower Y translation velocity, node 10, m/s
         96    9.213E-03                                 F               0         Tower Z translation velocity, node 10, m/s
         97    1.368E-03                                 F               0         Tower X translation velocity, node 11, m/s
         98    1.093E-01                                 F               0         Tower Y translation velocity, node 11, m/s
         99    9.616E-03                                 F               0         Tower Z translation velocity, node 11, m/s
        100    3.510E+01                                 F               0         Hub X translation displacement, node 1, m
        101   -6.867E+00                                 F               0         Hub Y translation displacement, node 1, m
        102   -4.570E-01                                 F               0         Hub Z translation displacement, node 1, m
        103    9.674E-01,  2.002E-02, -2.525E-01         F               0         Hub X orientation angle, node 1, rad
        104    2.058E-01, -6.433E-01,  7.374E-01         F               0         Hub Y orientation angle, node 1, rad
        105   -1.477E-01, -7.653E-01, -6.265E-01         F               0         Hub Z orientation angle, node 1, rad
        106    1.012E+00                                 F               0         Hub X rotation velocity, node 1, rad/s
        107    2.096E-02                                 F               0         Hub Y rotation velocity, node 1, rad/s
        108   -2.642E-01                                 F               0         Hub Z rotation velocity, node 1, rad/s
        109    9.609E-01,  3.910E-02, -2.743E-01         F               0         Blade root 1 X orientation angle, node 1, rad
        110    2.344E-01, -6.425E-01,  7.296E-01         F               0         Blade root 1 Y orientation angle, node 1, rad
        111   -1.477E-01, -7.653E-01, -6.265E-01         F               0         Blade root 1 Z orientation angle, node 1, rad
        112    9.738E-01,  3.013E-02, -2.254E-01         F               0         Blade root 2 X orientation angle, node 1, rad
        113   -2.020E-01, -3.404E-01, -9.183E-01         F               0         Blade root 2 Y orientation angle, node 1, rad
        114   -1.044E-01,  9.398E-01, -3.254E-01         F               0         Blade root 2 Z orientation angle, node 1, rad
        115    9.662E-01, -9.191E-03, -2.575E-01         F               0         Blade root 3 X orientation angle, node 1, rad
        116    5.369E-02,  9.846E-01,  1.663E-01         F               0         Blade root 3 Y orientation angle, node 1, rad
        117    2.521E-01, -1.745E-01,  9.519E-01         F               0         Blade root 3 Z orientation angle, node 1, rad
        118    3.370E+01                                 F               0         Blade 1 X translation displacement, node 1, m
        119   -1.111E+01                                 F               0         Blade 1 Y translation displacement, node 1, m
        120   -9.437E+00                                 F               0         Blade 1 Z translation displacement, node 1, m
        121    3.336E+01                                 F               0         Blade 1 X translation displacement, node 2, m
        122   -1.213E+01                                 F               0         Blade 1 Y translation displacement, node 2, m
        123   -1.160E+01                                 F               0         Blade 1 Z translation displacement, node 2, m
        124    2.878E+01                                 F               0         Blade 1 X translation displacement, node 3, m
        125   -2.602E+01                                 F               0         Blade 1 Y translation displacement, node 3, m
        126   -4.103E+01                                 F               0         Blade 1 Z translation displacement, node 3, m
        127    2.781E+01                                 F               0         Blade 1 X translation displacement, node 4, m
        128   -2.898E+01                                 F               0         Blade 1 Y translation displacement, node 4, m
        129   -4.730E+01                                 F               0         Blade 1 Z translation displacement, node 4, m
        130    2.683E+01                                 F               0         Blade 1 X translation displacement, node 5, m
        131   -3.194E+01                                 F               0         Blade 1 Y translation displacement, node 5, m
        132   -5.357E+01                                 F               0         Blade 1 Z translation displacement, node 5, m
        133    2.586E+01                                 F               0         Blade 1 X translation displacement, node 6, m
        134   -3.490E+01                                 F               0         Blade 1 Y translation displacement, node 6, m
        135   -5.983E+01                                 F               0         Blade 1 Z translation displacement, node 6, m
        136    2.488E+01                                 F               0         Blade 1 X translation displacement, node 7, m
        137   -3.786E+01                                 F               0         Blade 1 Y translation displacement, node 7, m
        138   -6.610E+01                                 F               0         Blade 1 Z translation displacement, node 7, m
        139    2.391E+01                                 F               0         Blade 1 X translation displacement, node 8, m
        140   -4.082E+01                                 F               0         Blade 1 Y translation displacement, node 8, m
        141   -7.237E+01                                 F               0         Blade 1 Z translation displacement, node 8, m
        142    2.293E+01                                 F               0         Blade 1 X translation displacement, node 9, m
        143   -4.378E+01                                 F               0         Blade 1 Y translation displacement, node 9, m
        144   -7.864E+01                                 F               0         Blade 1 Z translation displacement, node 9, m
        145    2.196E+01                                 F               0         Blade 1 X translation displacement, node 10, m
        146   -4.674E+01                                 F               0         Blade 1 Y translation displacement, node 10, m
        147   -8.491E+01                                 F               0         Blade 1 Z translation displacement, node 10, m
        148    2.098E+01                                 F               0         Blade 1 X translation displacement, node 11, m
        149   -4.970E+01                                 F               0         Blade 1 Y translation displacement, node 11, m
        150   -9.118E+01                                 F               0         Blade 1 Z translation displacement, node 11, m
        151    2.001E+01                                 F               0         Blade 1 X translation displacement, node 12, m
        152   -5.266E+01                                 F               0         Blade 1 Y translation displacement, node 12, m
        153   -9.745E+01                                 F               0         Blade 1 Z translation displacement, node 12, m
        154    1.903E+01                                 F               0         Blade 1 X translation displacement, node 13, m
        155   -5.562E+01                                 F               0         Blade 1 Y translation displacement, node 13, m
        156   -1.037E+02                                 F               0         Blade 1 Z translation displacement, node 13, m
        157    1.805E+01                                 F               0         Blade 1 X translation displacement, node 14, m
        158   -5.858E+01                                 F               0         Blade 1 Y translation displacement, node 14, m
        159   -1.100E+02                                 F               0         Blade 1 Z translation displacement, node 14, m
        160    1.708E+01                                 F               0         Blade 1 X translation displacement, node 15, m
        161   -6.154E+01                                 F               0         Blade 1 Y translation displacement, node 15, m
        162   -1.163E+02                                 F               0         Blade 1 Z translation displacement, node 15, m
        163    1.610E+01                                 F               0         Blade 1 X translation displacement, node 16, m
        164   -6.450E+01                                 F               0         Blade 1 Y translation displacement, node 16, m
        165   -1.225E+02                                 F               0         Blade 1 Z translation displacement, node 16, m
        166    1.513E+01                                 F               0         Blade 1 X translation displacement, node 17, m
        167   -6.746E+01                                 F               0         Blade 1 Y translation displacement, node 17, m
        168   -1.288E+02                                 F               0         Blade 1 Z translation displacement, node 17, m
        169    1.415E+01                                 F               0         Blade 1 X translation displacement, node 18, m
        170   -7.042E+01                                 F               0         Blade 1 Y translation displacement, node 18, m
        171   -1.351E+02                                 F               0         Blade 1 Z translation displacement, node 18, m
        172    1.318E+01                                 F               0         Blade 1 X translation displacement, node 19, m
        173   -7.338E+01                                 F               0         Blade 1 Y translation displacement, node 19, m
        174   -1.413E+02                                 F               0         Blade 1 Z translation displacement, node 19, m
        175    1.220E+01                                 F               0         Blade 1 X translation displacement, node 20, m
        176   -7.634E+01                                 F               0         Blade 1 Y translation displacement, node 20, m
        177   -1.476E+02                                 F               0         Blade 1 Z translation displacement, node 20, m
        178    1.123E+01                                 F               0         Blade 1 X translation displacement, node 21, m
        179   -7.930E+01                                 F               0         Blade 1 Y translation displacement, node 21, m
        180   -1.539E+02                                 F               0         Blade 1 Z translation displacement, node 21, m
        181    1.025E+01                                 F               0         Blade 1 X translation displacement, node 22, m
        182   -8.226E+01                                 F               0         Blade 1 Y translation displacement, node 22, m
        183   -1.601E+02                                 F               0         Blade 1 Z translation displacement, node 22, m
        184    9.275E+00                                 F               0         Blade 1 X translation displacement, node 23, m
        185   -8.522E+01                                 F               0         Blade 1 Y translation displacement, node 23, m
        186   -1.664E+02                                 F               0         Blade 1 Z translation displacement, node 23, m
        187    8.300E+00                                 F               0         Blade 1 X translation displacement, node 24, m
        188   -8.818E+01                                 F               0         Blade 1 Y translation displacement, node 24, m
        189   -1.727E+02                                 F               0         Blade 1 Z translation displacement, node 24, m
        190    7.325E+00                                 F               0         Blade 1 X translation displacement, node 25, m
        191   -9.114E+01                                 F               0         Blade 1 Y translation displacement, node 25, m
        192   -1.790E+02                                 F               0         Blade 1 Z translation displacement, node 25, m
        193    6.349E+00                                 F               0         Blade 1 X translation displacement, node 26, m
        194   -9.410E+01                                 F               0         Blade 1 Y translation displacement, node 26, m
        195   -1.852E+02                                 F               0         Blade 1 Z translation displacement, node 26, m
        196    5.374E+00                                 F               0         Blade 1 X translation displacement, node 27, m
        197   -9.706E+01                                 F               0         Blade 1 Y translation displacement, node 27, m
        198   -1.915E+02                                 F               0         Blade 1 Z translation displacement, node 27, m
        199    4.547E+00                                 F               0         Blade 1 X translation displacement, node 28, m
        200   -9.957E+01                                 F               0         Blade 1 Y translation displacement, node 28, m
        201   -1.968E+02                                 F               0         Blade 1 Z translation displacement, node 28, m
        202    7.483E-01,  3.278E-01, -5.768E-01         F               0         Blade 1 X orientation angle, node 1, rad
        203    6.468E-01, -5.539E-01,  5.242E-01         F               0         Blade 1 Y orientation angle, node 1, rad
        204   -1.477E-01, -7.653E-01, -6.265E-01         F               0         Blade 1 Z orientation angle, node 1, rad
        205    7.483E-01,  3.278E-01, -5.768E-01         F               0         Blade 1 X orientation angle, node 2, rad
        206    6.468E-01, -5.539E-01,  5.242E-01         F               0         Blade 1 Y orientation angle, node 2, rad
        207   -1.477E-01, -7.653E-01, -6.265E-01         F               0         Blade 1 Z orientation angle, node 2, rad
        208    8.802E-01,  1.871E-01, -4.361E-01         F               0         Blade 1 X orientation angle, node 3, rad
        209    4.510E-01, -6.158E-01,  6.460E-01         F               0         Blade 1 Y orientation angle, node 3, rad
        210   -1.477E-01, -7.653E-01, -6.265E-01         F               0         Blade 1 Z orientation angle, node 3, rad
        211    8.985E-01,  1.610E-01, -4.084E-01         F               0         Blade 1 X orientation angle, node 4, rad
        212    4.134E-01, -6.232E-01,  6.639E-01         F               0         Blade 1 Y orientation angle, node 4, rad
        213   -1.477E-01, -7.653E-01, -6.265E-01         F               0         Blade 1 Z orientation angle, node 4, rad
        214    9.117E-01,  1.402E-01, -3.862E-01         F               0         Blade 1 X orientation angle, node 5, rad
        215    3.834E-01, -6.282E-01,  6.770E-01         F               0         Blade 1 Y orientation angle, node 5, rad
        216   -1.477E-01, -7.653E-01, -6.265E-01         F               0         Blade 1 Z orientation angle, node 5, rad
        217    9.215E-01,  1.235E-01, -3.681E-01         F               0         Blade 1 X orientation angle, node 6, rad
        218    3.591E-01, -6.317E-01,  6.870E-01         F               0         Blade 1 Y orientation angle, node 6, rad
        219   -1.477E-01, -7.653E-01, -6.265E-01         F               0         Blade 1 Z orientation angle, node 6, rad
        220    9.292E-01,  1.097E-01, -3.530E-01         F               0         Blade 1 X orientation angle, node 7, rad
        221    3.389E-01, -6.342E-01,  6.949E-01         F               0         Blade 1 Y orientation angle, node 7, rad
        222   -1.477E-01, -7.653E-01, -6.265E-01         F               0         Blade 1 Z orientation angle, node 7, rad
        223    9.352E-01,  9.817E-02, -3.404E-01         F               0         Blade 1 X orientation angle, node 8, rad
        224    3.220E-01, -6.361E-01,  7.012E-01         F               0         Blade 1 Y orientation angle, node 8, rad
        225   -1.477E-01, -7.653E-01, -6.265E-01         F               0         Blade 1 Z orientation angle, node 8, rad
        226    9.400E-01,  8.838E-02, -3.296E-01         F               0         Blade 1 X orientation angle, node 9, rad
        227    3.076E-01, -6.375E-01,  7.063E-01         F               0         Blade 1 Y orientation angle, node 9, rad