
Linearized model: Predictions were generated on 30-Jan-2024 at 18:20:32 using OpenFAST, compiled as a 64-bit application using single precision at commit v3.5.1
 linked with  NWTC Subroutine Library; ElastoDyn; InflowWind; AeroDyn; ServoDyn; HydroDyn; MAP++ (<1.20.10>, <Oct-20-2023>)

Description from the FAST input file: CCT-9 Campign 4 model. Input files to be run with OpenFAST 3.5.0. GitHub branch from Lu Wang (https://github.com/luwang00/openfast/tree/dev) compiled on March 7, 2023.

Simulation information:
   Simulation time:                   501.9750 s
   Rotor Speed:                         0.8794 rad/s
   Azimuth:                             0.6140 rad
   Wind Speed:                         10.0000 m/s
   Number of continuous states:         0
   Number of discrete states:           0
   Number of constraint states:         0
   Number of inputs:                  303
   Number of outputs:                   1
   Jacobians included in this file?    No

Order of inputs:
     Column   Operating Point                     Rotating Frame? Derivative Order Description
   ---------- ---------------                     --------------- ---------------- -----------
          1   -1.080E+01                                 F               0         X-component position of node 1 (hub), m
          2    0.000E+00                                 F               0         Y-component position of node 1 (hub), m
          3    1.497E+02                                 F               0         Z-component position of node 1 (hub), m
          4    1.633E+01                                 F               0         X-component position of node 2 (blade 1, node 1), m
          5   -1.005E+01                                 F               0         Y-component position of node 2 (blade 1, node 1), m
          6    1.540E+02                                 F               0         Z-component position of node 2 (blade 1, node 1), m
          7    1.658E+01                                 F               0         X-component position of node 3 (blade 1, node 2), m
          8   -1.086E+01                                 F               0         Y-component position of node 3 (blade 1, node 2), m
          9    1.550E+02                                 F               0         Z-component position of node 3 (blade 1, node 2), m
         10    1.986E+01                                 F               0         X-component position of node 4 (blade 1, node 3), m
         11   -2.191E+01                                 F               0         Y-component position of node 4 (blade 1, node 3), m
         12    1.690E+02                                 F               0         Z-component position of node 4 (blade 1, node 3), m
         13    2.056E+01                                 F               0         X-component position of node 5 (blade 1, node 4), m
         14   -2.426E+01                                 F               0         Y-component position of node 5 (blade 1, node 4), m
         15    1.720E+02                                 F               0         Z-component position of node 5 (blade 1, node 4), m
         16    2.126E+01                                 F               0         X-component position of node 6 (blade 1, node 5), m
         17   -2.662E+01                                 F               0         Y-component position of node 6 (blade 1, node 5), m
         18    1.750E+02                                 F               0         Z-component position of node 6 (blade 1, node 5), m
         19    2.196E+01                                 F               0         X-component position of node 7 (blade 1, node 6), m
         20   -2.897E+01                                 F               0         Y-component position of node 7 (blade 1, node 6), m
         21    1.780E+02                                 F               0         Z-component position of node 7 (blade 1, node 6), m
         22    2.266E+01                                 F               0         X-component position of node 8 (blade 1, node 7), m
         23   -3.132E+01                                 F               0         Y-component position of node 8 (blade 1, node 7), m
         24    1.810E+02                                 F               0         Z-component position of node 8 (blade 1, node 7), m
         25    2.336E+01                                 F               0         X-component position of node 9 (blade 1, node 8), m
         26   -3.368E+01                                 F               0         Y-component position of node 9 (blade 1, node 8), m
         27    1.840E+02                                 F               0         Z-component position of node 9 (blade 1, node 8), m
         28    2.406E+01                                 F               0         X-component position of node 10 (blade 1, node 9), m
         29   -3.603E+01                                 F               0         Y-component position of node 10 (blade 1, node 9), m
         30    1.870E+02                                 F               0         Z-component position of node 10 (blade 1, node 9), m
         31    2.476E+01                                 F               0         X-component position of node 11 (blade 1, node 10), m
         32   -3.838E+01                                 F               0         Y-component position of node 11 (blade 1, node 10), m
         33    1.899E+02                                 F               0         Z-component position of node 11 (blade 1, node 10), m
         34    2.547E+01                                 F               0         X-component position of node 12 (blade 1, node 11), m
         35   -4.074E+01                                 F               0         Y-component position of node 12 (blade 1, node 11), m
         36    1.929E+02                                 F               0         Z-component position of node 12 (blade 1, node 11), m
         37    2.617E+01                                 F               0         X-component position of node 13 (blade 1, node 12), m
         38   -4.309E+01                                 F               0         Y-component position of node 13 (blade 1, node 12), m
         39    1.959E+02                                 F               0         Z-component position of node 13 (blade 1, node 12), m
         40    2.687E+01                                 F               0         X-component position of node 14 (blade 1, node 13), m
         41   -4.544E+01                                 F               0         Y-component position of node 14 (blade 1, node 13), m
         42    1.989E+02                                 F               0         Z-component position of node 14 (blade 1, node 13), m
         43    2.757E+01                                 F               0         X-component position of node 15 (blade 1, node 14), m
         44   -4.780E+01                                 F               0         Y-component position of node 15 (blade 1, node 14), m
         45    2.019E+02                                 F               0         Z-component position of node 15 (blade 1, node 14), m
         46    2.827E+01                                 F               0         X-component position of node 16 (blade 1, node 15), m
         47   -5.015E+01                                 F               0         Y-component position of node 16 (blade 1, node 15), m
         48    2.049E+02                                 F               0         Z-component position of node 16 (blade 1, node 15), m
         49    2.897E+01                                 F               0         X-component position of node 17 (blade 1, node 16), m
         50   -5.250E+01                                 F               0         Y-component position of node 17 (blade 1, node 16), m
         51    2.079E+02                                 F               0         Z-component position of node 17 (blade 1, node 16), m
         52    2.967E+01                                 F               0         X-component position of node 18 (blade 1, node 17), m
         53   -5.486E+01                                 F               0         Y-component position of node 18 (blade 1, node 17), m
         54    2.109E+02                                 F               0         Z-component position of node 18 (blade 1, node 17), m
         55    3.037E+01                                 F               0         X-component position of node 19 (blade 1, node 18), m
         56   -5.721E+01                                 F               0         Y-component position of node 19 (blade 1, node 18), m
         57    2.138E+02                                 F               0         Z-component position of node 19 (blade 1, node 18), m
         58    3.107E+01                                 F               0         X-component position of node 20 (blade 1, node 19), m
         59   -5.956E+01                                 F               0         Y-component position of node 20 (blade 1, node 19), m
         60    2.168E+02                                 F               0         Z-component position of node 20 (blade 1, node 19), m
         61    3.177E+01                                 F               0         X-component position of node 21 (blade 1, node 20), m
         62   -6.192E+01                                 F               0         Y-component position of node 21 (blade 1, node 20), m
         63    2.198E+02                                 F               0         Z-component position of node 21 (blade 1, node 20), m
         64    3.247E+01                                 F               0         X-component position of node 22 (blade 1, node 21), m
         65   -6.427E+01                                 F               0         Y-component position of node 22 (blade 1, node 21), m
         66    2.228E+02                                 F               0         Z-component position of node 22 (blade 1, node 21), m
         67    3.317E+01                                 F               0         X-component position of node 23 (blade 1, node 22), m
         68   -6.662E+01                                 F               0         Y-component position of node 23 (blade 1, node 22), m
         69    2.258E+02                                 F               0         Z-component position of node 23 (blade 1, node 22), m
         70    3.387E+01                                 F               0         X-component position of node 24 (blade 1, node 23), m
         71   -6.898E+01                                 F               0         Y-component position of node 24 (blade 1, node 23), m
         72    2.288E+02                                 F               0         Z-component position of node 24 (blade 1, node 23), m
         73    3.457E+01                                 F               0         X-component position of node 25 (blade 1, node 24), m
         74   -7.133E+01                                 F               0         Y-component position of node 25 (blade 1, node 24), m
         75    2.318E+02                                 F               0         Z-component position of node 25 (blade 1, node 24), m
         76    3.527E+01                                 F               0         X-component position of node 26 (blade 1, node 25), m
         77   -7.368E+01                                 F               0         Y-component position of node 26 (blade 1, node 25), m
         78    2.348E+02                                 F               0         Z-component position of node 26 (blade 1, node 25), m
         79    3.597E+01                                 F               0         X-component position of node 27 (blade 1, node 26), m
         80   -7.604E+01                                 F               0         Y-component position of node 27 (blade 1, node 26), m
         81    2.378E+02                                 F               0         Z-component position of node 27 (blade 1, node 26), m
         82    3.667E+01                                 F               0         X-component position of node 28 (blade 1, node 27), m
         83   -7.839E+01                                 F               0         Y-component position of node 28 (blade 1, node 27), m
         84    2.407E+02                                 F               0         Z-component position of node 28 (blade 1, node 27), m
         85    3.726E+01                                 F               0         X-component position of node 29 (blade 1, node 28), m
         86   -8.039E+01                                 F               0         Y-component position of node 29 (blade 1, node 28), m
         87    2.433E+02                                 F               0         Z-component position of node 29 (blade 1, node 28), m
         88    1.425E+01                                 F               0         X-component position of node 30 (blade 2, node 1), m
         89   -8.800E+00                                 F               0         Y-component position of node 30 (blade 2, node 1), m
         90    1.447E+02                                 F               0         Z-component position of node 30 (blade 2, node 1), m
         91    1.399E+01                                 F               0         X-component position of node 31 (blade 2, node 2), m
         92   -9.312E+00                                 F               0         Y-component position of node 31 (blade 2, node 2), m
         93    1.435E+02                                 F               0         Z-component position of node 31 (blade 2, node 2), m
         94    1.043E+01                                 F               0         X-component position of node 32 (blade 2, node 3), m
         95   -1.626E+01                                 F               0         Y-component position of node 32 (blade 2, node 3), m
         96    1.271E+02                                 F               0         Z-component position of node 32 (blade 2, node 3), m
         97    9.677E+00                                 F               0         X-component position of node 33 (blade 2, node 4), m
         98   -1.774E+01                                 F               0         Y-component position of node 33 (blade 2, node 4), m
         99    1.236E+02                                 F               0         Z-component position of node 33 (blade 2, node 4), m
        100    8.920E+00                                 F               0         X-component position of node 34 (blade 2, node 5), m
        101   -1.922E+01                                 F               0         Y-component position of node 34 (blade 2, node 5), m
        102    1.201E+02                                 F               0         Z-component position of node 34 (blade 2, node 5), m
        103    8.164E+00                                 F               0         X-component position of node 35 (blade 2, node 6), m
        104   -2.070E+01                                 F               0         Y-component position of node 35 (blade 2, node 6), m
        105    1.166E+02                                 F               0         Z-component position of node 35 (blade 2, node 6), m
        106    7.407E+00                                 F               0         X-component position of node 36 (blade 2, node 7), m
        107   -2.219E+01                                 F               0         Y-component position of node 36 (blade 2, node 7), m
        108    1.131E+02                                 F               0         Z-component position of node 36 (blade 2, node 7), m
        109    6.650E+00                                 F               0         X-component position of node 37 (blade 2, node 8), m
        110   -2.367E+01                                 F               0         Y-component position of node 37 (blade 2, node 8), m
        111    1.096E+02                                 F               0         Z-component position of node 37 (blade 2, node 8), m
        112    5.893E+00                                 F               0         X-component position of node 38 (blade 2, node 9), m
        113   -2.515E+01                                 F               0         Y-component position of node 38 (blade 2, node 9), m
        114    1.061E+02                                 F               0         Z-component position of node 38 (blade 2, node 9), m
        115    5.137E+00                                 F               0         X-component position of node 39 (blade 2, node 10), m
        116   -2.663E+01                                 F               0         Y-component position of node 39 (blade 2, node 10), m
        117    1.026E+02                                 F               0         Z-component position of node 39 (blade 2, node 10), m
        118    4.380E+00                                 F               0         X-component position of node 40 (blade 2, node 11), m
        119   -2.811E+01                                 F               0         Y-component position of node 40 (blade 2, node 11), m
        120    9.915E+01                                 F               0         Z-component position of node 40 (blade 2, node 11), m
        121    3.623E+00                                 F               0         X-component position of node 41 (blade 2, node 12), m
        122   -2.959E+01                                 F               0         Y-component position of node 41 (blade 2, node 12), m
        123    9.566E+01                                 F               0         Z-component position of node 41 (blade 2, node 12), m
        124    2.866E+00                                 F               0         X-component position of node 42 (blade 2, node 13), m
        125   -3.107E+01                                 F               0         Y-component position of node 42 (blade 2, node 13), m
        126    9.217E+01                                 F               0         Z-component position of node 42 (blade 2, node 13), m
        127    2.110E+00                                 F               0         X-component position of node 43 (blade 2, node 14), m
        128   -3.255E+01                                 F               0         Y-component position of node 43 (blade 2, node 14), m
        129    8.868E+01                                 F               0         Z-component position of node 43 (blade 2, node 14), m
        130    1.353E+00                                 F               0         X-component position of node 44 (blade 2, node 15), m
        131   -3.403E+01                                 F               0         Y-component position of node 44 (blade 2, node 15), m
        132    8.519E+01                                 F               0         Z-component position of node 44 (blade 2, node 15), m
        133    5.960E-01                                 F               0         X-component position of node 45 (blade 2, node 16), m
        134   -3.551E+01                                 F               0         Y-component position of node 45 (blade 2, node 16), m
        135    8.169E+01                                 F               0         Z-component position of node 45 (blade 2, node 16), m
        136   -1.608E-01                                 F               0         X-component position of node 46 (blade 2, node 17), m
        137   -3.699E+01                                 F               0         Y-component position of node 46 (blade 2, node 17), m
        138    7.820E+01                                 F               0         Z-component position of node 46 (blade 2, node 17), m
        139   -9.175E-01                                 F               0         X-component position of node 47 (blade 2, node 18), m
        140   -3.848E+01                                 F               0         Y-component position of node 47 (blade 2, node 18), m
        141    7.471E+01                                 F               0         Z-component position of node 47 (blade 2, node 18), m
        142   -1.674E+00                                 F               0         X-component position of node 48 (blade 2, node 19), m
        143   -3.996E+01                                 F               0         Y-component position of node 48 (blade 2, node 19), m
        144    7.122E+01                                 F               0         Z-component position of node 48 (blade 2, node 19), m
        145   -2.431E+00                                 F               0         X-component position of node 49 (blade 2, node 20), m
        146   -4.144E+01                                 F               0         Y-component position of node 49 (blade 2, node 20), m
        147    6.773E+01                                 F               0         Z-component position of node 49 (blade 2, node 20), m
        148   -3.188E+00                                 F               0         X-component position of node 50 (blade 2, node 21), m
        149   -4.292E+01                                 F               0         Y-component position of node 50 (blade 2, node 21), m
        150    6.424E+01                                 F               0         Z-component position of node 50 (blade 2, node 21), m
        151   -3.945E+00                                 F               0         X-component position of node 51 (blade 2, node 22), m
        152   -4.440E+01                                 F               0         Y-component position of node 51 (blade 2, node 22), m
        153    6.074E+01                                 F               0         Z-component position of node 51 (blade 2, node 22), m
        154   -4.701E+00                                 F               0         X-component position of node 52 (blade 2, node 23), m
        155   -4.588E+01                                 F               0         Y-component position of node 52 (blade 2, node 23), m
        156    5.725E+01                                 F               0         Z-component position of node 52 (blade 2, node 23), m
        157   -5.458E+00                                 F               0         X-component position of node 53 (blade 2, node 24), m
        158   -4.736E+01                                 F               0         Y-component position of node 53 (blade 2, node 24), m
        159    5.376E+01                                 F               0         Z-component position of node 53 (blade 2, node 24), m
        160   -6.215E+00                                 F               0         X-component position of node 54 (blade 2, node 25), m
        161   -4.884E+01                                 F               0         Y-component position of node 54 (blade 2, node 25), m
        162    5.027E+01                                 F               0         Z-component position of node 54 (blade 2, node 25), m
        163   -6.972E+00                                 F               0         X-component position of node 55 (blade 2, node 26), m
        164   -5.032E+01                                 F               0         Y-component position of node 55 (blade 2, node 26), m
        165    4.678E+01                                 F               0         Z-component position of node 55 (blade 2, node 26), m
        166   -7.728E+00                                 F               0         X-component position of node 56 (blade 2, node 27), m
        167   -5.180E+01                                 F               0         Y-component position of node 56 (blade 2, node 27), m
        168    4.328E+01                                 F               0         Z-component position of node 56 (blade 2, node 27), m
        169   -8.370E+00                                 F               0         X-component position of node 57 (blade 2, node 28), m
        170   -5.306E+01                                 F               0         Y-component position of node 57 (blade 2, node 28), m
        171    4.032E+01                                 F               0         Z-component position of node 57 (blade 2, node 28), m
        172    1.541E+01                                 F               0         X-component position of node 58 (blade 3, node 1), m
        173   -1.187E+00                                 F               0         Y-component position of node 58 (blade 3, node 1), m
        174    1.504E+02                                 F               0         Z-component position of node 58 (blade 3, node 1), m
        175    1.543E+01                                 F               0         X-component position of node 59 (blade 3, node 2), m
        176    1.364E-01                                 F               0         Y-component position of node 59 (blade 3, node 2), m
        177    1.506E+02                                 F               0         Z-component position of node 59 (blade 3, node 2), m
        178    1.570E+01                                 F               0         X-component position of node 60 (blade 3, node 3), m
        179    1.813E+01                                 F               0         Y-component position of node 60 (blade 3, node 3), m
        180    1.529E+02                                 F               0         Z-component position of node 60 (blade 3, node 3), m
        181    1.575E+01                                 F               0         X-component position of node 61 (blade 3, node 4), m
        182    2.197E+01                                 F               0         Y-component position of node 61 (blade 3, node 4), m
        183    1.534E+02                                 F               0         Z-component position of node 61 (blade 3, node 4), m
        184    1.581E+01                                 F               0         X-component position of node 62 (blade 3, node 5), m
        185    2.580E+01                                 F               0         Y-component position of node 62 (blade 3, node 5), m
        186    1.540E+02                                 F               0         Z-component position of node 62 (blade 3, node 5), m
        187    1.587E+01                                 F               0         X-component position of node 63 (blade 3, node 6), m
        188    2.964E+01                                 F               0         Y-component position of node 63 (blade 3, node 6), m
        189    1.545E+02                                 F               0         Z-component position of node 63 (blade 3, node 6), m
        190    1.592E+01                                 F               0         X-component position of node 64 (blade 3, node 7), m
        191    3.347E+01                                 F               0         Y-component position of node 64 (blade 3, node 7), m
        192    1.550E+02                                 F               0         Z-component position of node 64 (blade 3, node 7), m
        193    1.598E+01                                 F               0         X-component position of node 65 (blade 3, node 8), m
        194    3.730E+01                                 F               0         Y-component position of node 65 (blade 3, node 8), m
        195    1.555E+02                                 F               0         Z-component position of node 65 (blade 3, node 8), m
        196    1.603E+01                                 F               0         X-component position of node 66 (blade 3, node 9), m
        197    4.114E+01                                 F               0         Y-component position of node 66 (blade 3, node 9), m
        198    1.560E+02                                 F               0         Z-component position of node 66 (blade 3, node 9), m
        199    1.609E+01                                 F               0         X-component position of node 67 (blade 3, node 10), m
        200    4.497E+01                                 F               0         Y-component position of node 67 (blade 3, node 10), m
        201    1.565E+02                                 F               0         Z-component position of node 67 (blade 3, node 10), m
        202    1.615E+01                                 F               0         X-component position of node 68 (blade 3, node 11), m
        203    4.881E+01                                 F               0         Y-component position of node 68 (blade 3, node 11), m
        204    1.570E+02                                 F               0         Z-component position of node 68 (blade 3, node 11), m
        205    1.620E+01                                 F               0         X-component position of node 69 (blade 3, node 12), m
        206    5.264E+01                                 F               0         Y-component position of node 69 (blade 3, node 12), m
        207    1.575E+02                                 F               0         Z-component position of node 69 (blade 3, node 12), m
        208    1.626E+01                                 F               0         X-component position of node 70 (blade 3, node 13), m
        209    5.648E+01                                 F               0         Y-component position of node 70 (blade 3, node 13), m
        210    1.580E+02                                 F               0         Z-component position of node 70 (blade 3, node 13), m
        211    1.632E+01                                 F               0         X-component position of node 71 (blade 3, node 14), m