
Linearized model: Predictions were generated on 30-Jan-2024 at 18:20:32 using OpenFAST, compiled as a 64-bit application using single precision at commit v3.5.1
 linked with  NWTC Subroutine Library; ElastoDyn; InflowWind; AeroDyn; ServoDyn; HydroDyn; MAP++ (<1.20.10>, <Oct-20-2023>)

Description from the FAST input file: CCT-9 Campign 4 model. Input files to be run with OpenFAST 3.5.0. GitHub branch from Lu Wang (https://github.com/luwang00/openfast/tree/dev) compiled on March 7, 2023.

Simulation information:
   Simulation time:                   505.2000 s
   Rotor Speed:                         0.8795 rad/s
   Azimuth:                             3.4501 rad
   Wind Speed:                         10.0000 m/s
   Number of continuous states:         0
   Number of discrete states:           0
   Number of constraint states:         0
   Number of inputs:                  303
   Number of outputs:                   1
   Jacobians included in this file?    No

Order of inputs:
     Column   Operating Point                     Rotating Frame? Derivative Order Description
   ---------- ---------------                     --------------- ---------------- -----------
          1   -1.080E+01                                 F               0         X-component position of node 1 (hub), m
          2    0.000E+00                                 F               0         Y-component position of node 1 (hub), m
          3    1.497E+02                                 F               0         Z-component position of node 1 (hub), m
          4    1.417E+01                                 F               0         X-component position of node 2 (blade 1, node 1), m
          5   -4.811E+00                                 F               0         Y-component position of node 2 (blade 1, node 1), m
          6    1.446E+02                                 F               0         Z-component position of node 2 (blade 1, node 1), m
          7    1.389E+01                                 F               0         X-component position of node 3 (blade 1, node 2), m
          8   -4.355E+00                                 F               0         Y-component position of node 3 (blade 1, node 2), m
          9    1.434E+02                                 F               0         Z-component position of node 3 (blade 1, node 2), m
         10    1.010E+01                                 F               0         X-component position of node 4 (blade 1, node 3), m
         11    1.851E+00                                 F               0         Y-component position of node 4 (blade 1, node 3), m
         12    1.268E+02                                 F               0         Z-component position of node 4 (blade 1, node 3), m
         13    9.286E+00                                 F               0         X-component position of node 5 (blade 1, node 4), m
         14    3.173E+00                                 F               0         Y-component position of node 5 (blade 1, node 4), m
         15    1.232E+02                                 F               0         Z-component position of node 5 (blade 1, node 4), m
         16    8.476E+00                                 F               0         X-component position of node 6 (blade 1, node 5), m
         17    4.496E+00                                 F               0         Y-component position of node 6 (blade 1, node 5), m
         18    1.197E+02                                 F               0         Z-component position of node 6 (blade 1, node 5), m
         19    7.667E+00                                 F               0         X-component position of node 7 (blade 1, node 6), m
         20    5.818E+00                                 F               0         Y-component position of node 7 (blade 1, node 6), m
         21    1.161E+02                                 F               0         Z-component position of node 7 (blade 1, node 6), m
         22    6.858E+00                                 F               0         X-component position of node 8 (blade 1, node 7), m
         23    7.140E+00                                 F               0         Y-component position of node 8 (blade 1, node 7), m
         24    1.126E+02                                 F               0         Z-component position of node 8 (blade 1, node 7), m
         25    6.049E+00                                 F               0         X-component position of node 9 (blade 1, node 8), m
         26    8.462E+00                                 F               0         Y-component position of node 9 (blade 1, node 8), m
         27    1.090E+02                                 F               0         Z-component position of node 9 (blade 1, node 8), m
         28    5.239E+00                                 F               0         X-component position of node 10 (blade 1, node 9), m
         29    9.784E+00                                 F               0         Y-component position of node 10 (blade 1, node 9), m
         30    1.055E+02                                 F               0         Z-component position of node 10 (blade 1, node 9), m
         31    4.430E+00                                 F               0         X-component position of node 11 (blade 1, node 10), m
         32    1.111E+01                                 F               0         Y-component position of node 11 (blade 1, node 10), m
         33    1.020E+02                                 F               0         Z-component position of node 11 (blade 1, node 10), m
         34    3.621E+00                                 F               0         X-component position of node 12 (blade 1, node 11), m
         35    1.243E+01                                 F               0         Y-component position of node 12 (blade 1, node 11), m
         36    9.842E+01                                 F               0         Z-component position of node 12 (blade 1, node 11), m
         37    2.812E+00                                 F               0         X-component position of node 13 (blade 1, node 12), m
         38    1.375E+01                                 F               0         Y-component position of node 13 (blade 1, node 12), m
         39    9.487E+01                                 F               0         Z-component position of node 13 (blade 1, node 12), m
         40    2.003E+00                                 F               0         X-component position of node 14 (blade 1, node 13), m
         41    1.507E+01                                 F               0         Y-component position of node 14 (blade 1, node 13), m
         42    9.133E+01                                 F               0         Z-component position of node 14 (blade 1, node 13), m
         43    1.193E+00                                 F               0         X-component position of node 15 (blade 1, node 14), m
         44    1.640E+01                                 F               0         Y-component position of node 15 (blade 1, node 14), m
         45    8.779E+01                                 F               0         Z-component position of node 15 (blade 1, node 14), m
         46    3.839E-01                                 F               0         X-component position of node 16 (blade 1, node 15), m
         47    1.772E+01                                 F               0         Y-component position of node 16 (blade 1, node 15), m
         48    8.424E+01                                 F               0         Z-component position of node 16 (blade 1, node 15), m
         49   -4.253E-01                                 F               0         X-component position of node 17 (blade 1, node 16), m
         50    1.904E+01                                 F               0         Y-component position of node 17 (blade 1, node 16), m
         51    8.070E+01                                 F               0         Z-component position of node 17 (blade 1, node 16), m
         52   -1.234E+00                                 F               0         X-component position of node 18 (blade 1, node 17), m
         53    2.036E+01                                 F               0         Y-component position of node 18 (blade 1, node 17), m
         54    7.716E+01                                 F               0         Z-component position of node 18 (blade 1, node 17), m
         55   -2.044E+00                                 F               0         X-component position of node 19 (blade 1, node 18), m
         56    2.168E+01                                 F               0         Y-component position of node 19 (blade 1, node 18), m
         57    7.361E+01                                 F               0         Z-component position of node 19 (blade 1, node 18), m
         58   -2.853E+00                                 F               0         X-component position of node 20 (blade 1, node 19), m
         59    2.301E+01                                 F               0         Y-component position of node 20 (blade 1, node 19), m
         60    7.007E+01                                 F               0         Z-component position of node 20 (blade 1, node 19), m
         61   -3.662E+00                                 F               0         X-component position of node 21 (blade 1, node 20), m
         62    2.433E+01                                 F               0         Y-component position of node 21 (blade 1, node 20), m
         63    6.653E+01                                 F               0         Z-component position of node 21 (blade 1, node 20), m
         64   -4.471E+00                                 F               0         X-component position of node 22 (blade 1, node 21), m
         65    2.565E+01                                 F               0         Y-component position of node 22 (blade 1, node 21), m
         66    6.298E+01                                 F               0         Z-component position of node 22 (blade 1, node 21), m
         67   -5.281E+00                                 F               0         X-component position of node 23 (blade 1, node 22), m
         68    2.697E+01                                 F               0         Y-component position of node 23 (blade 1, node 22), m
         69    5.944E+01                                 F               0         Z-component position of node 23 (blade 1, node 22), m
         70   -6.090E+00                                 F               0         X-component position of node 24 (blade 1, node 23), m
         71    2.830E+01                                 F               0         Y-component position of node 24 (blade 1, node 23), m
         72    5.589E+01                                 F               0         Z-component position of node 24 (blade 1, node 23), m
         73   -6.899E+00                                 F               0         X-component position of node 25 (blade 1, node 24), m
         74    2.962E+01                                 F               0         Y-component position of node 25 (blade 1, node 24), m
         75    5.235E+01                                 F               0         Z-component position of node 25 (blade 1, node 24), m
         76   -7.708E+00                                 F               0         X-component position of node 26 (blade 1, node 25), m
         77    3.094E+01                                 F               0         Y-component position of node 26 (blade 1, node 25), m
         78    4.881E+01                                 F               0         Z-component position of node 26 (blade 1, node 25), m
         79   -8.518E+00                                 F               0         X-component position of node 27 (blade 1, node 26), m
         80    3.226E+01                                 F               0         Y-component position of node 27 (blade 1, node 26), m
         81    4.526E+01                                 F               0         Z-component position of node 27 (blade 1, node 26), m
         82   -9.327E+00                                 F               0         X-component position of node 28 (blade 1, node 27), m
         83    3.358E+01                                 F               0         Y-component position of node 28 (blade 1, node 27), m
         84    4.172E+01                                 F               0         Z-component position of node 28 (blade 1, node 27), m
         85   -1.001E+01                                 F               0         X-component position of node 29 (blade 1, node 28), m
         86    3.471E+01                                 F               0         Y-component position of node 29 (blade 1, node 28), m
         87    3.872E+01                                 F               0         Z-component position of node 29 (blade 1, node 28), m
         88    1.621E+01                                 F               0         X-component position of node 30 (blade 2, node 1), m
         89   -3.144E+00                                 F               0         Y-component position of node 30 (blade 2, node 1), m
         90    1.538E+02                                 F               0         Z-component position of node 30 (blade 2, node 1), m
         91    1.642E+01                                 F               0         X-component position of node 31 (blade 2, node 2), m
         92   -2.286E+00                                 F               0         Y-component position of node 31 (blade 2, node 2), m
         93    1.548E+02                                 F               0         Z-component position of node 31 (blade 2, node 2), m
         94    1.928E+01                                 F               0         X-component position of node 32 (blade 2, node 3), m
         95    9.383E+00                                 F               0         Y-component position of node 32 (blade 2, node 3), m
         96    1.685E+02                                 F               0         Z-component position of node 32 (blade 2, node 3), m
         97    1.989E+01                                 F               0         X-component position of node 33 (blade 2, node 4), m
         98    1.187E+01                                 F               0         Y-component position of node 33 (blade 2, node 4), m
         99    1.714E+02                                 F               0         Z-component position of node 33 (blade 2, node 4), m
        100    2.050E+01                                 F               0         X-component position of node 34 (blade 2, node 5), m
        101    1.436E+01                                 F               0         Y-component position of node 34 (blade 2, node 5), m
        102    1.743E+02                                 F               0         Z-component position of node 34 (blade 2, node 5), m
        103    2.111E+01                                 F               0         X-component position of node 35 (blade 2, node 6), m
        104    1.684E+01                                 F               0         Y-component position of node 35 (blade 2, node 6), m
        105    1.772E+02                                 F               0         Z-component position of node 35 (blade 2, node 6), m
        106    2.172E+01                                 F               0         X-component position of node 36 (blade 2, node 7), m
        107    1.933E+01                                 F               0         Y-component position of node 36 (blade 2, node 7), m
        108    1.800E+02                                 F               0         Z-component position of node 36 (blade 2, node 7), m
        109    2.233E+01                                 F               0         X-component position of node 37 (blade 2, node 8), m
        110    2.181E+01                                 F               0         Y-component position of node 37 (blade 2, node 8), m
        111    1.829E+02                                 F               0         Z-component position of node 37 (blade 2, node 8), m
        112    2.295E+01                                 F               0         X-component position of node 38 (blade 2, node 9), m
        113    2.430E+01                                 F               0         Y-component position of node 38 (blade 2, node 9), m
        114    1.858E+02                                 F               0         Z-component position of node 38 (blade 2, node 9), m
        115    2.356E+01                                 F               0         X-component position of node 39 (blade 2, node 10), m
        116    2.679E+01                                 F               0         Y-component position of node 39 (blade 2, node 10), m
        117    1.887E+02                                 F               0         Z-component position of node 39 (blade 2, node 10), m
        118    2.417E+01                                 F               0         X-component position of node 40 (blade 2, node 11), m
        119    2.927E+01                                 F               0         Y-component position of node 40 (blade 2, node 11), m
        120    1.916E+02                                 F               0         Z-component position of node 40 (blade 2, node 11), m
        121    2.478E+01                                 F               0         X-component position of node 41 (blade 2, node 12), m
        122    3.176E+01                                 F               0         Y-component position of node 41 (blade 2, node 12), m
        123    1.945E+02                                 F               0         Z-component position of node 41 (blade 2, node 12), m
        124    2.539E+01                                 F               0         X-component position of node 42 (blade 2, node 13), m
        125    3.425E+01                                 F               0         Y-component position of node 42 (blade 2, node 13), m
        126    1.974E+02                                 F               0         Z-component position of node 42 (blade 2, node 13), m
        127    2.600E+01                                 F               0         X-component position of node 43 (blade 2, node 14), m
        128    3.673E+01                                 F               0         Y-component position of node 43 (blade 2, node 14), m
        129    2.003E+02                                 F               0         Z-component position of node 43 (blade 2, node 14), m
        130    2.661E+01                                 F               0         X-component position of node 44 (blade 2, node 15), m
        131    3.922E+01                                 F               0         Y-component position of node 44 (blade 2, node 15), m
        132    2.032E+02                                 F               0         Z-component position of node 44 (blade 2, node 15), m
        133    2.722E+01                                 F               0         X-component position of node 45 (blade 2, node 16), m
        134    4.170E+01                                 F               0         Y-component position of node 45 (blade 2, node 16), m
        135    2.061E+02                                 F               0         Z-component position of node 45 (blade 2, node 16), m
        136    2.783E+01                                 F               0         X-component position of node 46 (blade 2, node 17), m
        137    4.419E+01                                 F               0         Y-component position of node 46 (blade 2, node 17), m
        138    2.090E+02                                 F               0         Z-component position of node 46 (blade 2, node 17), m
        139    2.844E+01                                 F               0         X-component position of node 47 (blade 2, node 18), m
        140    4.668E+01                                 F               0         Y-component position of node 47 (blade 2, node 18), m
        141    2.119E+02                                 F               0         Z-component position of node 47 (blade 2, node 18), m
        142    2.905E+01                                 F               0         X-component position of node 48 (blade 2, node 19), m
        143    4.916E+01                                 F               0         Y-component position of node 48 (blade 2, node 19), m
        144    2.148E+02                                 F               0         Z-component position of node 48 (blade 2, node 19), m
        145    2.966E+01                                 F               0         X-component position of node 49 (blade 2, node 20), m
        146    5.165E+01                                 F               0         Y-component position of node 49 (blade 2, node 20), m
        147    2.177E+02                                 F               0         Z-component position of node 49 (blade 2, node 20), m
        148    3.027E+01                                 F               0         X-component position of node 50 (blade 2, node 21), m
        149    5.414E+01                                 F               0         Y-component position of node 50 (blade 2, node 21), m
        150    2.206E+02                                 F               0         Z-component position of node 50 (blade 2, node 21), m
        151    3.088E+01                                 F               0         X-component position of node 51 (blade 2, node 22), m
        152    5.662E+01                                 F               0         Y-component position of node 51 (blade 2, node 22), m
        153    2.235E+02                                 F               0         Z-component position of node 51 (blade 2, node 22), m
        154    3.149E+01                                 F               0         X-component position of node 52 (blade 2, node 23), m
        155    5.911E+01                                 F               0         Y-component position of node 52 (blade 2, node 23), m
        156    2.264E+02                                 F               0         Z-component position of node 52 (blade 2, node 23), m
        157    3.210E+01                                 F               0         X-component position of node 53 (blade 2, node 24), m
        158    6.159E+01                                 F               0         Y-component position of node 53 (blade 2, node 24), m
        159    2.293E+02                                 F               0         Z-component position of node 53 (blade 2, node 24), m
        160    3.271E+01                                 F               0         X-component position of node 54 (blade 2, node 25), m
        161    6.408E+01                                 F               0         Y-component position of node 54 (blade 2, node 25), m
        162    2.322E+02                                 F               0         Z-component position of node 54 (blade 2, node 25), m
        163    3.332E+01                                 F               0         X-component position of node 55 (blade 2, node 26), m
        164    6.657E+01                                 F               0         Y-component position of node 55 (blade 2, node 26), m
        165    2.351E+02                                 F               0         Z-component position of node 55 (blade 2, node 26), m
        166    3.393E+01                                 F               0         X-component position of node 56 (blade 2, node 27), m
        167    6.905E+01                                 F               0         Y-component position of node 56 (blade 2, node 27), m
        168    2.380E+02                                 F               0         Z-component position of node 56 (blade 2, node 27), m
        169    3.445E+01                                 F               0         X-component position of node 57 (blade 2, node 28), m
        170    7.116E+01                                 F               0         Y-component position of node 57 (blade 2, node 28), m
        171    2.405E+02                                 F               0         Z-component position of node 57 (blade 2, node 28), m
        172    1.562E+01                                 F               0         X-component position of node 58 (blade 3, node 1), m
        173   -1.216E+01                                 F               0         Y-component position of node 58 (blade 3, node 1), m
        174    1.506E+02                                 F               0         Z-component position of node 58 (blade 3, node 1), m
        175    1.568E+01                                 F               0         X-component position of node 59 (blade 3, node 2), m
        176   -1.347E+01                                 F               0         Y-component position of node 59 (blade 3, node 2), m
        177    1.508E+02                                 F               0         Z-component position of node 59 (blade 3, node 2), m
        178    1.662E+01                                 F               0         X-component position of node 60 (blade 3, node 3), m
        179   -3.135E+01                                 F               0         Y-component position of node 60 (blade 3, node 3), m
        180    1.539E+02                                 F               0         Z-component position of node 60 (blade 3, node 3), m
        181    1.682E+01                                 F               0         X-component position of node 61 (blade 3, node 4), m
        182   -3.516E+01                                 F               0         Y-component position of node 61 (blade 3, node 4), m
        183    1.545E+02                                 F               0         Z-component position of node 61 (blade 3, node 4), m
        184    1.702E+01                                 F               0         X-component position of node 62 (blade 3, node 5), m
        185   -3.897E+01                                 F               0         Y-component position of node 62 (blade 3, node 5), m
        186    1.552E+02                                 F               0         Z-component position of node 62 (blade 3, node 5), m
        187    1.721E+01                                 F               0         X-component position of node 63 (blade 3, node 6), m
        188   -4.277E+01                                 F               0         Y-component position of node 63 (blade 3, node 6), m
        189    1.558E+02                                 F               0         Z-component position of node 63 (blade 3, node 6), m
        190    1.741E+01                                 F               0         X-component position of node 64 (blade 3, node 7), m
        191   -4.658E+01                                 F               0         Y-component position of node 64 (blade 3, node 7), m
        192    1.564E+02                                 F               0         Z-component position of node 64 (blade 3, node 7), m
        193    1.761E+01                                 F               0         X-component position of node 65 (blade 3, node 8), m
        194   -5.039E+01                                 F               0         Y-component position of node 65 (blade 3, node 8), m
        195    1.571E+02                                 F               0         Z-component position of node 65 (blade 3, node 8), m
        196    1.781E+01                                 F               0         X-component position of node 66 (blade 3, node 9), m
        197   -5.420E+01                                 F               0         Y-component position of node 66 (blade 3, node 9), m
        198    1.577E+02                                 F               0         Z-component position of node 66 (blade 3, node 9), m
        199    1.801E+01                                 F               0         X-component position of node 67 (blade 3, node 10), m
        200   -5.801E+01                                 F               0         Y-component position of node 67 (blade 3, node 10), m
        201    1.584E+02                                 F               0         Z-component position of node 67 (blade 3, node 10), m
        202    1.821E+01                                 F               0         X-component position of node 68 (blade 3, node 11), m
        203   -6.182E+01                                 F               0         Y-component position of node 68 (blade 3, node 11), m
        204    1.590E+02                                 F               0         Z-component position of node 68 (blade 3, node 11), m
        205    1.841E+01                                 F               0         X-component position of node 69 (blade 3, node 12), m
        206   -6.563E+01                                 F               0         Y-component position of node 69 (blade 3, node 12), m
        207    1.597E+02                                 F               0         Z-component position of node 69 (blade 3, node 12), m
        208    1.861E+01                                 F               0         X-component position of node 70 (blade 3, node 13), m
        209   -6.943E+01                                 F               0         Y-component position of node 70 (blade 3, node 13), m
        210    1.603E+02                                 F               0         Z-component position of node 70 (blade 3, node 13), m
        211    1.880E+01                                 F               0         X-component position of node 71 (blade 3, node 14), m