
Linearized model: Predictions were generated on 30-Jan-2024 at 18:20:32 using OpenFAST, compiled as a 64-bit application using single precision at commit v3.5.1
 linked with  NWTC Subroutine Library; ElastoDyn; InflowWind; AeroDyn; ServoDyn; HydroDyn; MAP++ (<1.20.10>, <Oct-20-2023>)

Description from the FAST input file: CCT-9 Campign 4 model. Input files to be run with OpenFAST 3.5.0. GitHub branch from Lu Wang (https://github.com/luwang00/openfast/tree/dev) compiled on March 7, 2023.

Simulation information:
   Simulation time:                   503.7250 s
   Rotor Speed:                         0.8794 rad/s
   Azimuth:                             2.1529 rad
   Wind Speed:                         10.0000 m/s
   Number of continuous states:         0
   Number of discrete states:           0
   Number of constraint states:         0
   Number of inputs:                 1746
   Number of outputs:                   4
   Jacobians included in this file?    No

Order of inputs:
     Column   Operating Point                     Rotating Frame? Derivative Order Description
   ---------- ---------------                     --------------- ---------------- -----------
          1    1.098E+01                                 F               0         Tower X translation displacement, node 1, m
          2   -1.117E+00                                 F               0         Tower Y translation displacement, node 1, m
          3   -3.057E-01                                 F               0         Tower Z translation displacement, node 1, m
          4    1.240E+01                                 F               0         Tower X translation displacement, node 2, m
          5   -1.629E+00                                 F               0         Tower Y translation displacement, node 2, m
          6   -3.981E-01                                 F               0         Tower Z translation displacement, node 2, m
          7    1.382E+01                                 F               0         Tower X translation displacement, node 3, m
          8   -2.141E+00                                 F               0         Tower Y translation displacement, node 3, m
          9   -4.904E-01                                 F               0         Tower Z translation displacement, node 3, m
         10    1.523E+01                                 F               0         Tower X translation displacement, node 4, m
         11   -2.654E+00                                 F               0         Tower Y translation displacement, node 4, m
         12   -5.828E-01                                 F               0         Tower Z translation displacement, node 4, m
         13    1.665E+01                                 F               0         Tower X translation displacement, node 5, m
         14   -3.166E+00                                 F               0         Tower Y translation displacement, node 5, m
         15   -6.751E-01                                 F               0         Tower Z translation displacement, node 5, m
         16    1.807E+01                                 F               0         Tower X translation displacement, node 6, m
         17   -3.679E+00                                 F               0         Tower Y translation displacement, node 6, m
         18   -7.674E-01                                 F               0         Tower Z translation displacement, node 6, m
         19    1.949E+01                                 F               0         Tower X translation displacement, node 7, m
         20   -4.191E+00                                 F               0         Tower Y translation displacement, node 7, m
         21   -8.598E-01                                 F               0         Tower Z translation displacement, node 7, m
         22    2.091E+01                                 F               0         Tower X translation displacement, node 8, m
         23   -4.703E+00                                 F               0         Tower Y translation displacement, node 8, m
         24   -9.521E-01                                 F               0         Tower Z translation displacement, node 8, m
         25    2.232E+01                                 F               0         Tower X translation displacement, node 9, m
         26   -5.216E+00                                 F               0         Tower Y translation displacement, node 9, m
         27   -1.044E+00                                 F               0         Tower Z translation displacement, node 9, m
         28    2.374E+01                                 F               0         Tower X translation displacement, node 10, m
         29   -5.728E+00                                 F               0         Tower Y translation displacement, node 10, m
         30   -1.137E+00                                 F               0         Tower Z translation displacement, node 10, m
         31    2.516E+01                                 F               0         Tower X translation displacement, node 11, m
         32   -6.241E+00                                 F               0         Tower Y translation displacement, node 11, m
         33   -1.229E+00                                 F               0         Tower Z translation displacement, node 11, m
         34    9.934E-01,  9.872E-03, -1.145E-01         F               0         Tower X orientation angle, node 1, rad
         35   -5.051E-03,  9.991E-01,  4.233E-02         F               0         Tower Y orientation angle, node 1, rad
         36    1.148E-01, -4.147E-02,  9.925E-01         F               0         Tower Z orientation angle, node 1, rad
         37    9.934E-01,  9.872E-03, -1.145E-01         F               0         Tower X orientation angle, node 2, rad
         38   -5.051E-03,  9.991E-01,  4.233E-02         F               0         Tower Y orientation angle, node 2, rad
         39    1.148E-01, -4.147E-02,  9.925E-01         F               0         Tower Z orientation angle, node 2, rad
         40    9.934E-01,  9.872E-03, -1.145E-01         F               0         Tower X orientation angle, node 3, rad
         41   -5.051E-03,  9.991E-01,  4.233E-02         F               0         Tower Y orientation angle, node 3, rad
         42    1.148E-01, -4.147E-02,  9.925E-01         F               0         Tower Z orientation angle, node 3, rad
         43    9.934E-01,  9.872E-03, -1.145E-01         F               0         Tower X orientation angle, node 4, rad
         44   -5.051E-03,  9.991E-01,  4.233E-02         F               0         Tower Y orientation angle, node 4, rad
         45    1.148E-01, -4.147E-02,  9.925E-01         F               0         Tower Z orientation angle, node 4, rad
         46    9.934E-01,  9.872E-03, -1.145E-01         F               0         Tower X orientation angle, node 5, rad
         47   -5.051E-03,  9.991E-01,  4.233E-02         F               0         Tower Y orientation angle, node 5, rad
         48    1.148E-01, -4.147E-02,  9.925E-01         F               0         Tower Z orientation angle, node 5, rad
         49    9.934E-01,  9.872E-03, -1.145E-01         F               0         Tower X orientation angle, node 6, rad
         50   -5.051E-03,  9.991E-01,  4.233E-02         F               0         Tower Y orientation angle, node 6, rad
         51    1.148E-01, -4.147E-02,  9.925E-01         F               0         Tower Z orientation angle, node 6, rad
         52    9.934E-01,  9.872E-03, -1.145E-01         F               0         Tower X orientation angle, node 7, rad
         53   -5.051E-03,  9.991E-01,  4.233E-02         F               0         Tower Y orientation angle, node 7, rad
         54    1.148E-01, -4.147E-02,  9.925E-01         F               0         Tower Z orientation angle, node 7, rad
         55    9.934E-01,  9.872E-03, -1.145E-01         F               0         Tower X orientation angle, node 8, rad
         56   -5.051E-03,  9.991E-01,  4.233E-02         F               0         Tower Y orientation angle, node 8, rad
         57    1.148E-01, -4.147E-02,  9.925E-01         F               0         Tower Z orientation angle, node 8, rad
         58    9.934E-01,  9.872E-03, -1.145E-01         F               0         Tower X orientation angle, node 9, rad
         59   -5.051E-03,  9.991E-01,  4.233E-02         F               0         Tower Y orientation angle, node 9, rad
         60    1.148E-01, -4.147E-02,  9.925E-01         F               0         Tower Z orientation angle, node 9, rad
         61    9.934E-01,  9.872E-03, -1.145E-01         F               0         Tower X orientation angle, node 10, rad
         62   -5.051E-03,  9.991E-01,  4.233E-02         F               0         Tower Y orientation angle, node 10, rad
         63    1.148E-01, -4.147E-02,  9.925E-01         F               0         Tower Z orientation angle, node 10, rad
         64    9.934E-01,  9.872E-03, -1.145E-01         F               0         Tower X orientation angle, node 11, rad
         65   -5.051E-03,  9.991E-01,  4.233E-02         F               0         Tower Y orientation angle, node 11, rad
         66    1.148E-01, -4.147E-02,  9.925E-01         F               0         Tower Z orientation angle, node 11, rad
         67   -3.192E-03                                 F               0         Tower X translation velocity, node 1, m/s
         68    7.230E-05                                 F               0         Tower Y translation velocity, node 1, m/s
         69    3.341E-03                                 F               0         Tower Z translation velocity, node 1, m/s
         70   -2.838E-03                                 F               0         Tower X translation velocity, node 2, m/s
         71   -9.112E-04                                 F               0         Tower Y translation velocity, node 2, m/s
         72    3.259E-03                                 F               0         Tower Z translation velocity, node 2, m/s
         73   -2.484E-03                                 F               0         Tower X translation velocity, node 3, m/s
         74   -1.895E-03                                 F               0         Tower Y translation velocity, node 3, m/s
         75    3.177E-03                                 F               0         Tower Z translation velocity, node 3, m/s
         76   -2.130E-03                                 F               0         Tower X translation velocity, node 4, m/s
         77   -2.878E-03                                 F               0         Tower Y translation velocity, node 4, m/s
         78    3.095E-03                                 F               0         Tower Z translation velocity, node 4, m/s
         79   -1.776E-03                                 F               0         Tower X translation velocity, node 5, m/s
         80   -3.862E-03                                 F               0         Tower Y translation velocity, node 5, m/s
         81    3.013E-03                                 F               0         Tower Z translation velocity, node 5, m/s
         82   -1.422E-03                                 F               0         Tower X translation velocity, node 6, m/s
         83   -4.845E-03                                 F               0         Tower Y translation velocity, node 6, m/s
         84    2.931E-03                                 F               0         Tower Z translation velocity, node 6, m/s
         85   -1.068E-03                                 F               0         Tower X translation velocity, node 7, m/s
         86   -5.829E-03                                 F               0         Tower Y translation velocity, node 7, m/s
         87    2.849E-03                                 F               0         Tower Z translation velocity, node 7, m/s
         88   -7.141E-04                                 F               0         Tower X translation velocity, node 8, m/s
         89   -6.812E-03                                 F               0         Tower Y translation velocity, node 8, m/s
         90    2.767E-03                                 F               0         Tower Z translation velocity, node 8, m/s
         91   -3.601E-04                                 F               0         Tower X translation velocity, node 9, m/s
         92   -7.796E-03                                 F               0         Tower Y translation velocity, node 9, m/s
         93    2.685E-03                                 F               0         Tower Z translation velocity, node 9, m/s
         94   -6.192E-06                                 F               0         Tower X translation velocity, node 10, m/s
         95   -8.779E-03                                 F               0         Tower Y translation velocity, node 10, m/s
         96    2.603E-03                                 F               0         Tower Z translation velocity, node 10, m/s
         97    3.477E-04                                 F               0         Tower X translation velocity, node 11, m/s
         98   -9.763E-03                                 F               0         Tower Y translation velocity, node 11, m/s
         99    2.521E-03                                 F               0         Tower Z translation velocity, node 11, m/s
        100    2.613E+01                                 F               0         Hub X translation displacement, node 1, m
        101   -6.673E+00                                 F               0         Hub Y translation displacement, node 1, m
        102   -5.163E-02                                 F               0         Hub Z translation displacement, node 1, m
        103    9.759E-01,  1.415E-02, -2.176E-01         F               0         Hub X orientation angle, node 1, rad
        104    1.849E-01, -5.829E-01,  7.913E-01         F               0         Hub Y orientation angle, node 1, rad
        105   -1.156E-01, -8.124E-01, -5.715E-01         F               0         Hub Z orientation angle, node 1, rad
        106    8.583E-01                                 F               0         Hub X rotation velocity, node 1, rad/s
        107    1.248E-02                                 F               0         Hub Y rotation velocity, node 1, rad/s
        108   -1.914E-01                                 F               0         Hub Z rotation velocity, node 1, rad/s
        109    9.700E-01,  3.144E-02, -2.410E-01         F               0         Blade root 1 X orientation angle, node 1, rad
        110    2.137E-01, -5.822E-01,  7.845E-01         F               0         Blade root 1 Y orientation angle, node 1, rad
        111   -1.156E-01, -8.124E-01, -5.715E-01         F               0         Blade root 1 Z orientation angle, node 1, rad
        112    9.812E-01,  2.637E-02, -1.911E-01         F               0         Blade root 2 X orientation angle, node 1, rad
        113   -1.635E-01, -4.116E-01, -8.966E-01         F               0         Blade root 2 Y orientation angle, node 1, rad
        114   -1.023E-01,  9.110E-01, -3.995E-01         F               0         Blade root 2 Z orientation angle, node 1, rad
        115    9.753E-01, -1.537E-02, -2.204E-01         F               0         Blade root 3 X orientation angle, node 1, rad
        116    3.665E-02,  9.950E-01,  9.277E-02         F               0         Blade root 3 Y orientation angle, node 1, rad
        117    2.179E-01, -9.856E-02,  9.710E-01         F               0         Blade root 3 Z orientation angle, node 1, rad
        118    2.491E+01                                 F               0         Blade 1 X translation displacement, node 1, m
        119   -1.117E+01                                 F               0         Blade 1 Y translation displacement, node 1, m
        120   -8.727E+00                                 F               0         Blade 1 Z translation displacement, node 1, m
        121    2.462E+01                                 F               0         Blade 1 X translation displacement, node 2, m
        122   -1.226E+01                                 F               0         Blade 1 Y translation displacement, node 2, m
        123   -1.082E+01                                 F               0         Blade 1 Z translation displacement, node 2, m
        124    2.062E+01                                 F               0         Blade 1 X translation displacement, node 3, m
        125   -2.701E+01                                 F               0         Blade 1 Y translation displacement, node 3, m
        126   -3.924E+01                                 F               0         Blade 1 Z translation displacement, node 3, m
        127    1.977E+01                                 F               0         Blade 1 X translation displacement, node 4, m
        128   -3.015E+01                                 F               0         Blade 1 Y translation displacement, node 4, m
        129   -4.530E+01                                 F               0         Blade 1 Z translation displacement, node 4, m
        130    1.892E+01                                 F               0         Blade 1 X translation displacement, node 5, m
        131   -3.329E+01                                 F               0         Blade 1 Y translation displacement, node 5, m
        132   -5.136E+01                                 F               0         Blade 1 Z translation displacement, node 5, m
        133    1.807E+01                                 F               0         Blade 1 X translation displacement, node 6, m
        134   -3.643E+01                                 F               0         Blade 1 Y translation displacement, node 6, m
        135   -5.741E+01                                 F               0         Blade 1 Z translation displacement, node 6, m
        136    1.722E+01                                 F               0         Blade 1 X translation displacement, node 7, m
        137   -3.958E+01                                 F               0         Blade 1 Y translation displacement, node 7, m
        138   -6.347E+01                                 F               0         Blade 1 Z translation displacement, node 7, m
        139    1.636E+01                                 F               0         Blade 1 X translation displacement, node 8, m
        140   -4.272E+01                                 F               0         Blade 1 Y translation displacement, node 8, m
        141   -6.953E+01                                 F               0         Blade 1 Z translation displacement, node 8, m
        142    1.551E+01                                 F               0         Blade 1 X translation displacement, node 9, m
        143   -4.586E+01                                 F               0         Blade 1 Y translation displacement, node 9, m
        144   -7.558E+01                                 F               0         Blade 1 Z translation displacement, node 9, m
        145    1.466E+01                                 F               0         Blade 1 X translation displacement, node 10, m
        146   -4.900E+01                                 F               0         Blade 1 Y translation displacement, node 10, m
        147   -8.164E+01                                 F               0         Blade 1 Z translation displacement, node 10, m
        148    1.381E+01                                 F               0         Blade 1 X translation displacement, node 11, m
        149   -5.214E+01                                 F               0         Blade 1 Y translation displacement, node 11, m
        150   -8.770E+01                                 F               0         Blade 1 Z translation displacement, node 11, m
        151    1.296E+01                                 F               0         Blade 1 X translation displacement, node 12, m
        152   -5.529E+01                                 F               0         Blade 1 Y translation displacement, node 12, m
        153   -9.376E+01                                 F               0         Blade 1 Z translation displacement, node 12, m
        154    1.211E+01                                 F               0         Blade 1 X translation displacement, node 13, m
        155   -5.843E+01                                 F               0         Blade 1 Y translation displacement, node 13, m
        156   -9.981E+01                                 F               0         Blade 1 Z translation displacement, node 13, m
        157    1.126E+01                                 F               0         Blade 1 X translation displacement, node 14, m
        158   -6.157E+01                                 F               0         Blade 1 Y translation displacement, node 14, m
        159   -1.059E+02                                 F               0         Blade 1 Z translation displacement, node 14, m
        160    1.040E+01                                 F               0         Blade 1 X translation displacement, node 15, m
        161   -6.471E+01                                 F               0         Blade 1 Y translation displacement, node 15, m
        162   -1.119E+02                                 F               0         Blade 1 Z translation displacement, node 15, m
        163    9.553E+00                                 F               0         Blade 1 X translation displacement, node 16, m
        164   -6.786E+01                                 F               0         Blade 1 Y translation displacement, node 16, m
        165   -1.180E+02                                 F               0         Blade 1 Z translation displacement, node 16, m
        166    8.701E+00                                 F               0         Blade 1 X translation displacement, node 17, m
        167   -7.100E+01                                 F               0         Blade 1 Y translation displacement, node 17, m
        168   -1.240E+02                                 F               0         Blade 1 Z translation displacement, node 17, m
        169    7.850E+00                                 F               0         Blade 1 X translation displacement, node 18, m
        170   -7.414E+01                                 F               0         Blade 1 Y translation displacement, node 18, m
        171   -1.301E+02                                 F               0         Blade 1 Z translation displacement, node 18, m
        172    6.998E+00                                 F               0         Blade 1 X translation displacement, node 19, m
        173   -7.728E+01                                 F               0         Blade 1 Y translation displacement, node 19, m
        174   -1.362E+02                                 F               0         Blade 1 Z translation displacement, node 19, m
        175    6.147E+00                                 F               0         Blade 1 X translation displacement, node 20, m
        176   -8.042E+01                                 F               0         Blade 1 Y translation displacement, node 20, m
        177   -1.422E+02                                 F               0         Blade 1 Z translation displacement, node 20, m
        178    5.296E+00                                 F               0         Blade 1 X translation displacement, node 21, m
        179   -8.357E+01                                 F               0         Blade 1 Y translation displacement, node 21, m
        180   -1.483E+02                                 F               0         Blade 1 Z translation displacement, node 21, m
        181    4.444E+00                                 F               0         Blade 1 X translation displacement, node 22, m
        182   -8.671E+01                                 F               0         Blade 1 Y translation displacement, node 22, m
        183   -1.543E+02                                 F               0         Blade 1 Z translation displacement, node 22, m
        184    3.593E+00                                 F               0         Blade 1 X translation displacement, node 23, m
        185   -8.985E+01                                 F               0         Blade 1 Y translation displacement, node 23, m
        186   -1.604E+02                                 F               0         Blade 1 Z translation displacement, node 23, m
        187    2.741E+00                                 F               0         Blade 1 X translation displacement, node 24, m
        188   -9.299E+01                                 F               0         Blade 1 Y translation displacement, node 24, m
        189   -1.664E+02                                 F               0         Blade 1 Z translation displacement, node 24, m
        190    1.890E+00                                 F               0         Blade 1 X translation displacement, node 25, m
        191   -9.614E+01                                 F               0         Blade 1 Y translation displacement, node 25, m
        192   -1.725E+02                                 F               0         Blade 1 Z translation displacement, node 25, m
        193    1.038E+00                                 F               0         Blade 1 X translation displacement, node 26, m
        194   -9.928E+01                                 F               0         Blade 1 Y translation displacement, node 26, m
        195   -1.785E+02                                 F               0         Blade 1 Z translation displacement, node 26, m
        196    1.868E-01                                 F               0         Blade 1 X translation displacement, node 27, m
        197   -1.024E+02                                 F               0         Blade 1 Y translation displacement, node 27, m
        198   -1.846E+02                                 F               0         Blade 1 Z translation displacement, node 27, m
        199   -5.351E-01                                 F               0         Blade 1 X translation displacement, node 28, m
        200   -1.051E+02                                 F               0         Blade 1 Y translation displacement, node 28, m
        201   -1.897E+02                                 F               0         Blade 1 Z translation displacement, node 28, m
        202    7.658E-01,  2.935E-01, -5.722E-01         F               0         Blade 1 X orientation angle, node 1, rad
        203    6.326E-01, -5.038E-01,  5.883E-01         F               0         Blade 1 Y orientation angle, node 1, rad
        204   -1.156E-01, -8.124E-01, -5.715E-01         F               0         Blade 1 Z orientation angle, node 1, rad
        205    7.658E-01,  2.935E-01, -5.722E-01         F               0         Blade 1 X orientation angle, node 2, rad
        206    6.326E-01, -5.038E-01,  5.883E-01         F               0         Blade 1 Y orientation angle, node 2, rad
        207   -1.156E-01, -8.124E-01, -5.715E-01         F               0         Blade 1 Z orientation angle, node 2, rad
        208    8.939E-01,  1.657E-01, -4.164E-01         F               0         Blade 1 X orientation angle, node 3, rad
        209    4.330E-01, -5.590E-01,  7.071E-01         F               0         Blade 1 Y orientation angle, node 3, rad
        210   -1.156E-01, -8.124E-01, -5.715E-01         F               0         Blade 1 Z orientation angle, node 3, rad
        211    9.114E-01,  1.419E-01, -3.862E-01         F               0         Blade 1 X orientation angle, node 4, rad
        212    3.949E-01, -5.655E-01,  7.241E-01         F               0         Blade 1 Y orientation angle, node 4, rad
        213   -1.156E-01, -8.124E-01, -5.715E-01         F               0         Blade 1 Z orientation angle, node 4, rad
        214    9.240E-01,  1.231E-01, -3.620E-01         F               0         Blade 1 X orientation angle, node 5, rad
        215    3.645E-01, -5.699E-01,  7.365E-01         F               0         Blade 1 Y orientation angle, node 5, rad
        216   -1.156E-01, -8.124E-01, -5.715E-01         F               0         Blade 1 Z orientation angle, node 5, rad
        217    9.334E-01,  1.080E-01, -3.423E-01         F               0         Blade 1 X orientation angle, node 6, rad
        218    3.398E-01, -5.730E-01,  7.458E-01         F               0         Blade 1 Y orientation angle, node 6, rad
        219   -1.156E-01, -8.124E-01, -5.715E-01         F               0         Blade 1 Z orientation angle, node 6, rad
        220    9.405E-01,  9.544E-02, -3.260E-01         F               0         Blade 1 X orientation angle, node 7, rad
        221    3.194E-01, -5.752E-01,  7.531E-01         F               0         Blade 1 Y orientation angle, node 7, rad
        222   -1.156E-01, -8.124E-01, -5.715E-01         F               0         Blade 1 Z orientation angle, node 7, rad
        223    9.462E-01,  8.498E-02, -3.123E-01         F               0         Blade 1 X orientation angle, node 8, rad
        224    3.023E-01, -5.768E-01,  7.589E-01         F               0         Blade 1 Y orientation angle, node 8, rad
        225   -1.156E-01, -8.124E-01, -5.715E-01         F               0         Blade 1 Z orientation angle, node 8, rad
        226    9.507E-01,  7.611E-02, -3.006E-01         F               0         Blade 1 X orientation angle, node 9, rad
        227    2.877E-01, -5.780E-01,  7.636E-01         F               0         Blade 1 Y orientation angle, node 9, rad