
Linearized model: Predictions were generated on 30-Jan-2024 at 18:20:32 using OpenFAST, compiled as a 64-bit application using single precision at commit v3.5.1
 linked with  NWTC Subroutine Library; ElastoDyn; InflowWind; AeroDyn; ServoDyn; HydroDyn; MAP++ (<1.20.10>, <Oct-20-2023>)

Description from the FAST input file: CCT-9 Campign 4 model. Input files to be run with OpenFAST 3.5.0. GitHub branch from Lu Wang (https://github.com/luwang00/openfast/tree/dev) compiled on March 7, 2023.

Simulation information:
   Simulation time:                   507.4250 s
   Rotor Speed:                         0.8793 rad/s
   Azimuth:                             5.4068 rad
   Wind Speed:                         10.0000 m/s
   Number of continuous states:         0
   Number of discrete states:           0
   Number of constraint states:         0
   Number of inputs:                 1746
   Number of outputs:                   4
   Jacobians included in this file?    No

Order of inputs:
     Column   Operating Point                     Rotating Frame? Derivative Order Description
   ---------- ---------------                     --------------- ---------------- -----------
          1    1.096E+01                                 F               0         Tower X translation displacement, node 1, m
          2   -1.132E+00                                 F               0         Tower Y translation displacement, node 1, m
          3   -2.908E-01                                 F               0         Tower Z translation displacement, node 1, m
          4    1.238E+01                                 F               0         Tower X translation displacement, node 2, m
          5   -1.656E+00                                 F               0         Tower Y translation displacement, node 2, m
          6   -3.838E-01                                 F               0         Tower Z translation displacement, node 2, m
          7    1.380E+01                                 F               0         Tower X translation displacement, node 3, m
          8   -2.179E+00                                 F               0         Tower Y translation displacement, node 3, m
          9   -4.767E-01                                 F               0         Tower Z translation displacement, node 3, m
         10    1.522E+01                                 F               0         Tower X translation displacement, node 4, m
         11   -2.703E+00                                 F               0         Tower Y translation displacement, node 4, m
         12   -5.696E-01                                 F               0         Tower Z translation displacement, node 4, m
         13    1.664E+01                                 F               0         Tower X translation displacement, node 5, m
         14   -3.226E+00                                 F               0         Tower Y translation displacement, node 5, m
         15   -6.625E-01                                 F               0         Tower Z translation displacement, node 5, m
         16    1.806E+01                                 F               0         Tower X translation displacement, node 6, m
         17   -3.750E+00                                 F               0         Tower Y translation displacement, node 6, m
         18   -7.555E-01                                 F               0         Tower Z translation displacement, node 6, m
         19    1.948E+01                                 F               0         Tower X translation displacement, node 7, m
         20   -4.274E+00                                 F               0         Tower Y translation displacement, node 7, m
         21   -8.484E-01                                 F               0         Tower Z translation displacement, node 7, m
         22    2.090E+01                                 F               0         Tower X translation displacement, node 8, m
         23   -4.797E+00                                 F               0         Tower Y translation displacement, node 8, m
         24   -9.413E-01                                 F               0         Tower Z translation displacement, node 8, m
         25    2.232E+01                                 F               0         Tower X translation displacement, node 9, m
         26   -5.321E+00                                 F               0         Tower Y translation displacement, node 9, m
         27   -1.034E+00                                 F               0         Tower Z translation displacement, node 9, m
         28    2.374E+01                                 F               0         Tower X translation displacement, node 10, m
         29   -5.845E+00                                 F               0         Tower Y translation displacement, node 10, m
         30   -1.127E+00                                 F               0         Tower Z translation displacement, node 10, m
         31    2.515E+01                                 F               0         Tower X translation displacement, node 11, m
         32   -6.368E+00                                 F               0         Tower Y translation displacement, node 11, m
         33   -1.220E+00                                 F               0         Tower Z translation displacement, node 11, m
         34    9.934E-01,  9.684E-03, -1.145E-01         F               0         Tower X orientation angle, node 1, rad
         35   -4.757E-03,  9.991E-01,  4.321E-02         F               0         Tower Y orientation angle, node 1, rad
         36    1.148E-01, -4.238E-02,  9.925E-01         F               0         Tower Z orientation angle, node 1, rad
         37    9.934E-01,  9.684E-03, -1.145E-01         F               0         Tower X orientation angle, node 2, rad
         38   -4.757E-03,  9.991E-01,  4.321E-02         F               0         Tower Y orientation angle, node 2, rad
         39    1.148E-01, -4.238E-02,  9.925E-01         F               0         Tower Z orientation angle, node 2, rad
         40    9.934E-01,  9.684E-03, -1.145E-01         F               0         Tower X orientation angle, node 3, rad
         41   -4.757E-03,  9.991E-01,  4.321E-02         F               0         Tower Y orientation angle, node 3, rad
         42    1.148E-01, -4.238E-02,  9.925E-01         F               0         Tower Z orientation angle, node 3, rad
         43    9.934E-01,  9.684E-03, -1.145E-01         F               0         Tower X orientation angle, node 4, rad
         44   -4.757E-03,  9.991E-01,  4.321E-02         F               0         Tower Y orientation angle, node 4, rad
         45    1.148E-01, -4.238E-02,  9.925E-01         F               0         Tower Z orientation angle, node 4, rad
         46    9.934E-01,  9.684E-03, -1.145E-01         F               0         Tower X orientation angle, node 5, rad
         47   -4.757E-03,  9.991E-01,  4.321E-02         F               0         Tower Y orientation angle, node 5, rad
         48    1.148E-01, -4.238E-02,  9.925E-01         F               0         Tower Z orientation angle, node 5, rad
         49    9.934E-01,  9.684E-03, -1.145E-01         F               0         Tower X orientation angle, node 6, rad
         50   -4.757E-03,  9.991E-01,  4.321E-02         F               0         Tower Y orientation angle, node 6, rad
         51    1.148E-01, -4.238E-02,  9.925E-01         F               0         Tower Z orientation angle, node 6, rad
         52    9.934E-01,  9.684E-03, -1.145E-01         F               0         Tower X orientation angle, node 7, rad
         53   -4.757E-03,  9.991E-01,  4.321E-02         F               0         Tower Y orientation angle, node 7, rad
         54    1.148E-01, -4.238E-02,  9.925E-01         F               0         Tower Z orientation angle, node 7, rad
         55    9.934E-01,  9.684E-03, -1.145E-01         F               0         Tower X orientation angle, node 8, rad
         56   -4.757E-03,  9.991E-01,  4.321E-02         F               0         Tower Y orientation angle, node 8, rad
         57    1.148E-01, -4.238E-02,  9.925E-01         F               0         Tower Z orientation angle, node 8, rad
         58    9.934E-01,  9.684E-03, -1.145E-01         F               0         Tower X orientation angle, node 9, rad
         59   -4.757E-03,  9.991E-01,  4.321E-02         F               0         Tower Y orientation angle, node 9, rad
         60    1.148E-01, -4.238E-02,  9.925E-01         F               0         Tower Z orientation angle, node 9, rad
         61    9.934E-01,  9.684E-03, -1.145E-01         F               0         Tower X orientation angle, node 10, rad
         62   -4.757E-03,  9.991E-01,  4.321E-02         F               0         Tower Y orientation angle, node 10, rad
         63    1.148E-01, -4.238E-02,  9.925E-01         F               0         Tower Z orientation angle, node 10, rad
         64    9.934E-01,  9.684E-03, -1.145E-01         F               0         Tower X orientation angle, node 11, rad
         65   -4.757E-03,  9.991E-01,  4.321E-02         F               0         Tower Y orientation angle, node 11, rad
         66    1.148E-01, -4.238E-02,  9.925E-01         F               0         Tower Z orientation angle, node 11, rad
         67   -4.664E-03                                 F               0         Tower X translation velocity, node 1, m/s
         68   -6.806E-03                                 F               0         Tower Y translation velocity, node 1, m/s
         69    3.615E-03                                 F               0         Tower Z translation velocity, node 1, m/s
         70   -4.579E-03                                 F               0         Tower X translation velocity, node 2, m/s
         71   -1.122E-02                                 F               0         Tower Y translation velocity, node 2, m/s
         72    3.417E-03                                 F               0         Tower Z translation velocity, node 2, m/s
         73   -4.494E-03                                 F               0         Tower X translation velocity, node 3, m/s
         74   -1.562E-02                                 F               0         Tower Y translation velocity, node 3, m/s
         75    3.219E-03                                 F               0         Tower Z translation velocity, node 3, m/s
         76   -4.410E-03                                 F               0         Tower X translation velocity, node 4, m/s
         77   -2.003E-02                                 F               0         Tower Y translation velocity, node 4, m/s
         78    3.021E-03                                 F               0         Tower Z translation velocity, node 4, m/s
         79   -4.325E-03                                 F               0         Tower X translation velocity, node 5, m/s
         80   -2.444E-02                                 F               0         Tower Y translation velocity, node 5, m/s
         81    2.822E-03                                 F               0         Tower Z translation velocity, node 5, m/s
         82   -4.240E-03                                 F               0         Tower X translation velocity, node 6, m/s
         83   -2.885E-02                                 F               0         Tower Y translation velocity, node 6, m/s
         84    2.624E-03                                 F               0         Tower Z translation velocity, node 6, m/s
         85   -4.156E-03                                 F               0         Tower X translation velocity, node 7, m/s
         86   -3.326E-02                                 F               0         Tower Y translation velocity, node 7, m/s
         87    2.426E-03                                 F               0         Tower Z translation velocity, node 7, m/s
         88   -4.071E-03                                 F               0         Tower X translation velocity, node 8, m/s
         89   -3.767E-02                                 F               0         Tower Y translation velocity, node 8, m/s
         90    2.228E-03                                 F               0         Tower Z translation velocity, node 8, m/s
         91   -3.986E-03                                 F               0         Tower X translation velocity, node 9, m/s
         92   -4.208E-02                                 F               0         Tower Y translation velocity, node 9, m/s
         93    2.030E-03                                 F               0         Tower Z translation velocity, node 9, m/s
         94   -3.902E-03                                 F               0         Tower X translation velocity, node 10, m/s
         95   -4.648E-02                                 F               0         Tower Y translation velocity, node 10, m/s
         96    1.832E-03                                 F               0         Tower Z translation velocity, node 10, m/s
         97   -3.817E-03                                 F               0         Tower X translation velocity, node 11, m/s
         98   -5.089E-02                                 F               0         Tower Y translation velocity, node 11, m/s
         99    1.634E-03                                 F               0         Tower Z translation velocity, node 11, m/s
        100    2.613E+01                                 F               0         Hub X translation displacement, node 1, m
        101   -6.805E+00                                 F               0         Hub Y translation displacement, node 1, m
        102   -4.208E-02                                 F               0         Hub Z translation displacement, node 1, m
        103    9.759E-01,  1.406E-02, -2.177E-01         F               0         Hub X orientation angle, node 1, rad
        104   -1.706E-01,  6.710E-01, -7.216E-01         F               0         Hub Y orientation angle, node 1, rad
        105    1.359E-01,  7.414E-01,  6.572E-01         F               0         Hub Z orientation angle, node 1, rad
        106    8.585E-01                                 F               0         Hub X rotation velocity, node 1, rad/s
        107    1.237E-02                                 F               0         Hub Y rotation velocity, node 1, rad/s
        108   -1.915E-01                                 F               0         Hub Z rotation velocity, node 1, rad/s
        109    9.806E-01, -5.850E-03, -1.962E-01         F               0         Blade root 1 X orientation angle, node 1, rad
        110   -1.416E-01,  6.711E-01, -7.277E-01         F               0         Blade root 1 Y orientation angle, node 1, rad
        111    1.359E-01,  7.414E-01,  6.572E-01         F               0         Blade root 1 Z orientation angle, node 1, rad
        112    9.695E-01,  4.961E-03, -2.451E-01         F               0         Blade root 2 X orientation angle, node 1, rad
        113    2.318E-01,  3.068E-01,  9.231E-01         F               0         Blade root 2 Y orientation angle, node 1, rad
        114    7.980E-02, -9.518E-01,  2.963E-01         F               0         Blade root 2 Z orientation angle, node 1, rad
        115    9.765E-01,  4.305E-02, -2.114E-01         F               0         Blade root 3 X orientation angle, node 1, rad
        116   -3.420E-03, -9.767E-01, -2.147E-01         F               0         Blade root 3 Y orientation angle, node 1, rad
        117   -2.157E-01,  2.104E-01, -9.535E-01         F               0         Blade root 3 Z orientation angle, node 1, rad
        118    2.630E+01                                 F               0         Blade 1 X translation displacement, node 1, m
        119   -2.698E+00                                 F               0         Blade 1 Y translation displacement, node 1, m
        120   -1.911E+00                                 F               0         Blade 1 Z translation displacement, node 1, m
        121    2.634E+01                                 F               0         Blade 1 X translation displacement, node 2, m
        122   -1.709E+00                                 F               0         Blade 1 Y translation displacement, node 2, m
        123   -2.361E+00                                 F               0         Blade 1 Z translation displacement, node 2, m
        124    2.691E+01                                 F               0         Blade 1 X translation displacement, node 3, m
        125    1.175E+01                                 F               0         Blade 1 Y translation displacement, node 3, m
        126   -8.484E+00                                 F               0         Blade 1 Z translation displacement, node 3, m
        127    2.703E+01                                 F               0         Blade 1 X translation displacement, node 4, m
        128    1.462E+01                                 F               0         Blade 1 Y translation displacement, node 4, m
        129   -9.789E+00                                 F               0         Blade 1 Z translation displacement, node 4, m
        130    2.716E+01                                 F               0         Blade 1 X translation displacement, node 5, m
        131    1.748E+01                                 F               0         Blade 1 Y translation displacement, node 5, m
        132   -1.109E+01                                 F               0         Blade 1 Z translation displacement, node 5, m
        133    2.728E+01                                 F               0         Blade 1 X translation displacement, node 6, m
        134    2.035E+01                                 F               0         Blade 1 Y translation displacement, node 6, m
        135   -1.240E+01                                 F               0         Blade 1 Z translation displacement, node 6, m
        136    2.740E+01                                 F               0         Blade 1 X translation displacement, node 7, m
        137    2.322E+01                                 F               0         Blade 1 Y translation displacement, node 7, m
        138   -1.370E+01                                 F               0         Blade 1 Z translation displacement, node 7, m
        139    2.752E+01                                 F               0         Blade 1 X translation displacement, node 8, m
        140    2.609E+01                                 F               0         Blade 1 Y translation displacement, node 8, m
        141   -1.501E+01                                 F               0         Blade 1 Z translation displacement, node 8, m
        142    2.764E+01                                 F               0         Blade 1 X translation displacement, node 9, m
        143    2.895E+01                                 F               0         Blade 1 Y translation displacement, node 9, m
        144   -1.631E+01                                 F               0         Blade 1 Z translation displacement, node 9, m
        145    2.776E+01                                 F               0         Blade 1 X translation displacement, node 10, m
        146    3.182E+01                                 F               0         Blade 1 Y translation displacement, node 10, m
        147   -1.762E+01                                 F               0         Blade 1 Z translation displacement, node 10, m
        148    2.788E+01                                 F               0         Blade 1 X translation displacement, node 11, m
        149    3.469E+01                                 F               0         Blade 1 Y translation displacement, node 11, m
        150   -1.892E+01                                 F               0         Blade 1 Z translation displacement, node 11, m
        151    2.800E+01                                 F               0         Blade 1 X translation displacement, node 12, m
        152    3.755E+01                                 F               0         Blade 1 Y translation displacement, node 12, m
        153   -2.023E+01                                 F               0         Blade 1 Z translation displacement, node 12, m
        154    2.813E+01                                 F               0         Blade 1 X translation displacement, node 13, m
        155    4.042E+01                                 F               0         Blade 1 Y translation displacement, node 13, m
        156   -2.153E+01                                 F               0         Blade 1 Z translation displacement, node 13, m
        157    2.825E+01                                 F               0         Blade 1 X translation displacement, node 14, m
        158    4.329E+01                                 F               0         Blade 1 Y translation displacement, node 14, m
        159   -2.283E+01                                 F               0         Blade 1 Z translation displacement, node 14, m
        160    2.837E+01                                 F               0         Blade 1 X translation displacement, node 15, m
        161    4.616E+01                                 F               0         Blade 1 Y translation displacement, node 15, m
        162   -2.414E+01                                 F               0         Blade 1 Z translation displacement, node 15, m
        163    2.849E+01                                 F               0         Blade 1 X translation displacement, node 16, m
        164    4.902E+01                                 F               0         Blade 1 Y translation displacement, node 16, m
        165   -2.544E+01                                 F               0         Blade 1 Z translation displacement, node 16, m
        166    2.861E+01                                 F               0         Blade 1 X translation displacement, node 17, m
        167    5.189E+01                                 F               0         Blade 1 Y translation displacement, node 17, m
        168   -2.675E+01                                 F               0         Blade 1 Z translation displacement, node 17, m
        169    2.873E+01                                 F               0         Blade 1 X translation displacement, node 18, m
        170    5.476E+01                                 F               0         Blade 1 Y translation displacement, node 18, m
        171   -2.805E+01                                 F               0         Blade 1 Z translation displacement, node 18, m
        172    2.885E+01                                 F               0         Blade 1 X translation displacement, node 19, m
        173    5.763E+01                                 F               0         Blade 1 Y translation displacement, node 19, m
        174   -2.936E+01                                 F               0         Blade 1 Z translation displacement, node 19, m
        175    2.897E+01                                 F               0         Blade 1 X translation displacement, node 20, m
        176    6.049E+01                                 F               0         Blade 1 Y translation displacement, node 20, m
        177   -3.066E+01                                 F               0         Blade 1 Z translation displacement, node 20, m
        178    2.910E+01                                 F               0         Blade 1 X translation displacement, node 21, m
        179    6.336E+01                                 F               0         Blade 1 Y translation displacement, node 21, m
        180   -3.197E+01                                 F               0         Blade 1 Z translation displacement, node 21, m
        181    2.922E+01                                 F               0         Blade 1 X translation displacement, node 22, m
        182    6.623E+01                                 F               0         Blade 1 Y translation displacement, node 22, m
        183   -3.327E+01                                 F               0         Blade 1 Z translation displacement, node 22, m
        184    2.934E+01                                 F               0         Blade 1 X translation displacement, node 23, m
        185    6.910E+01                                 F               0         Blade 1 Y translation displacement, node 23, m
        186   -3.458E+01                                 F               0         Blade 1 Z translation displacement, node 23, m
        187    2.946E+01                                 F               0         Blade 1 X translation displacement, node 24, m
        188    7.196E+01                                 F               0         Blade 1 Y translation displacement, node 24, m
        189   -3.588E+01                                 F               0         Blade 1 Z translation displacement, node 24, m
        190    2.958E+01                                 F               0         Blade 1 X translation displacement, node 25, m
        191    7.483E+01                                 F               0         Blade 1 Y translation displacement, node 25, m
        192   -3.719E+01                                 F               0         Blade 1 Z translation displacement, node 25, m
        193    2.970E+01                                 F               0         Blade 1 X translation displacement, node 26, m
        194    7.770E+01                                 F               0         Blade 1 Y translation displacement, node 26, m
        195   -3.849E+01                                 F               0         Blade 1 Z translation displacement, node 26, m
        196    2.982E+01                                 F               0         Blade 1 X translation displacement, node 27, m
        197    8.056E+01                                 F               0         Blade 1 Y translation displacement, node 27, m
        198   -3.979E+01                                 F               0         Blade 1 Z translation displacement, node 27, m
        199    2.993E+01                                 F               0         Blade 1 X translation displacement, node 28, m
        200    8.300E+01                                 F               0         Blade 1 Y translation displacement, node 28, m
        201   -4.090E+01                                 F               0         Blade 1 Z translation displacement, node 28, m
        202    9.372E-01, -3.112E-01,  1.573E-01         F               0         Blade 1 X orientation angle, node 1, rad
        203    3.211E-01,  5.946E-01, -7.371E-01         F               0         Blade 1 Y orientation angle, node 1, rad
        204    1.359E-01,  7.414E-01,  6.572E-01         F               0         Blade 1 Z orientation angle, node 1, rad
        205    9.372E-01, -3.112E-01,  1.573E-01         F               0         Blade 1 X orientation angle, node 2, rad
        206    3.211E-01,  5.946E-01, -7.371E-01         F               0         Blade 1 Y orientation angle, node 2, rad
        207    1.359E-01,  7.414E-01,  6.572E-01         F               0         Blade 1 Z orientation angle, node 2, rad
        208    9.866E-01, -1.614E-01, -2.190E-02         F               0         Blade 1 X orientation angle, node 3, rad
        209    8.987E-02,  6.514E-01, -7.534E-01         F               0         Blade 1 Y orientation angle, node 3, rad
        210    1.359E-01,  7.414E-01,  6.572E-01         F               0         Blade 1 Z orientation angle, node 3, rad
        211    9.896E-01, -1.338E-01, -5.369E-02         F               0         Blade 1 X orientation angle, node 4, rad
        212    4.813E-02,  6.576E-01, -7.518E-01         F               0         Blade 1 Y orientation angle, node 4, rad
        213    1.359E-01,  7.414E-01,  6.572E-01         F               0         Blade 1 Z orientation angle, node 4, rad
        214    9.906E-01, -1.119E-01, -7.858E-02         F               0         Blade 1 X orientation angle, node 5, rad
        215    1.529E-02,  6.617E-01, -7.496E-01         F               0         Blade 1 Y orientation angle, node 5, rad
        216    1.359E-01,  7.414E-01,  6.572E-01         F               0         Blade 1 Z orientation angle, node 5, rad
        217    9.907E-01, -9.432E-02, -9.844E-02         F               0         Blade 1 X orientation angle, node 6, rad
        218   -1.099E-02,  6.645E-01, -7.472E-01         F               0         Blade 1 Y orientation angle, node 6, rad
        219    1.359E-01,  7.414E-01,  6.572E-01         F               0         Blade 1 Z orientation angle, node 6, rad
        220    9.902E-01, -7.981E-02, -1.147E-01         F               0         Blade 1 X orientation angle, node 7, rad
        221   -3.260E-02,  6.664E-01, -7.449E-01         F               0         Blade 1 Y orientation angle, node 7, rad
        222    1.359E-01,  7.414E-01,  6.572E-01         F               0         Blade 1 Z orientation angle, node 7, rad
        223    9.894E-01, -6.770E-02, -1.282E-01         F               0         Blade 1 X orientation angle, node 8, rad
        224   -5.056E-02,  6.677E-01, -7.427E-01         F               0         Blade 1 Y orientation angle, node 8, rad
        225    1.359E-01,  7.414E-01,  6.572E-01         F               0         Blade 1 Z orientation angle, node 8, rad
        226    9.885E-01, -5.744E-02, -1.396E-01         F               0         Blade 1 X orientation angle, node 9, rad
        227   -6.575E-02,  6.687E-01, -7.407E-01         F               0         Blade 1 Y orientation angle, node 9, rad