
Linearized model: Predictions were generated on 12-Feb-2024 at 18:31:58 using OpenFAST, compiled as a 64-bit application using single precision at commit v3.5.1
 linked with  NWTC Subroutine Library; ElastoDyn; InflowWind; AeroDyn; ServoDyn; HydroDyn; MAP++ (<1.20.10>, <Oct-20-2023>)

Description from the FAST input file: CCT-9 Campign 4 model. Input files to be run with OpenFAST 3.5.0. GitHub branch from Lu Wang (https://github.com/luwang00/openfast/tree/dev) compiled on March 7, 2023.

Simulation information:
   Simulation time:                  1007.7000 s
   Rotor Speed:                         1.0472 rad/s
   Azimuth:                             1.4430 rad
   Wind Speed:                         12.0000 m/s
   Number of continuous states:         0
   Number of discrete states:           0
   Number of constraint states:         0
   Number of inputs:                 1746
   Number of outputs:                   4
   Jacobians included in this file?    No

Order of inputs:
     Column   Operating Point                     Rotating Frame? Derivative Order Description
   ---------- ---------------                     --------------- ---------------- -----------
          1    1.518E+01                                 F               0         Tower X translation displacement, node 1, m
          2   -1.030E+00                                 F               0         Tower Y translation displacement, node 1, m
          3   -4.588E-01                                 F               0         Tower Z translation displacement, node 1, m
          4    1.704E+01                                 F               0         Tower X translation displacement, node 2, m
          5   -1.571E+00                                 F               0         Tower Y translation displacement, node 2, m
          6   -6.118E-01                                 F               0         Tower Z translation displacement, node 2, m
          7    1.890E+01                                 F               0         Tower X translation displacement, node 3, m
          8   -2.112E+00                                 F               0         Tower Y translation displacement, node 3, m
          9   -7.647E-01                                 F               0         Tower Z translation displacement, node 3, m
         10    2.076E+01                                 F               0         Tower X translation displacement, node 4, m
         11   -2.652E+00                                 F               0         Tower Y translation displacement, node 4, m
         12   -9.177E-01                                 F               0         Tower Z translation displacement, node 4, m
         13    2.262E+01                                 F               0         Tower X translation displacement, node 5, m
         14   -3.193E+00                                 F               0         Tower Y translation displacement, node 5, m
         15   -1.071E+00                                 F               0         Tower Z translation displacement, node 5, m
         16    2.449E+01                                 F               0         Tower X translation displacement, node 6, m
         17   -3.733E+00                                 F               0         Tower Y translation displacement, node 6, m
         18   -1.224E+00                                 F               0         Tower Z translation displacement, node 6, m
         19    2.635E+01                                 F               0         Tower X translation displacement, node 7, m
         20   -4.274E+00                                 F               0         Tower Y translation displacement, node 7, m
         21   -1.376E+00                                 F               0         Tower Z translation displacement, node 7, m
         22    2.821E+01                                 F               0         Tower X translation displacement, node 8, m
         23   -4.815E+00                                 F               0         Tower Y translation displacement, node 8, m
         24   -1.529E+00                                 F               0         Tower Z translation displacement, node 8, m
         25    3.007E+01                                 F               0         Tower X translation displacement, node 9, m
         26   -5.355E+00                                 F               0         Tower Y translation displacement, node 9, m
         27   -1.682E+00                                 F               0         Tower Z translation displacement, node 9, m
         28    3.193E+01                                 F               0         Tower X translation displacement, node 10, m
         29   -5.896E+00                                 F               0         Tower Y translation displacement, node 10, m
         30   -1.835E+00                                 F               0         Tower Z translation displacement, node 10, m
         31    3.379E+01                                 F               0         Tower X translation displacement, node 11, m
         32   -6.436E+00                                 F               0         Tower Y translation displacement, node 11, m
         33   -1.988E+00                                 F               0         Tower Z translation displacement, node 11, m
         34    9.886E-01,  1.545E-02, -1.501E-01         F               0         Tower X orientation angle, node 1, rad
         35   -8.687E-03,  9.989E-01,  4.558E-02         F               0         Tower Y orientation angle, node 1, rad
         36    1.506E-01, -4.376E-02,  9.876E-01         F               0         Tower Z orientation angle, node 1, rad
         37    9.886E-01,  1.545E-02, -1.501E-01         F               0         Tower X orientation angle, node 2, rad
         38   -8.687E-03,  9.989E-01,  4.558E-02         F               0         Tower Y orientation angle, node 2, rad
         39    1.506E-01, -4.376E-02,  9.876E-01         F               0         Tower Z orientation angle, node 2, rad
         40    9.886E-01,  1.545E-02, -1.501E-01         F               0         Tower X orientation angle, node 3, rad
         41   -8.687E-03,  9.989E-01,  4.558E-02         F               0         Tower Y orientation angle, node 3, rad
         42    1.506E-01, -4.376E-02,  9.876E-01         F               0         Tower Z orientation angle, node 3, rad
         43    9.886E-01,  1.545E-02, -1.501E-01         F               0         Tower X orientation angle, node 4, rad
         44   -8.687E-03,  9.989E-01,  4.558E-02         F               0         Tower Y orientation angle, node 4, rad
         45    1.506E-01, -4.376E-02,  9.876E-01         F               0         Tower Z orientation angle, node 4, rad
         46    9.886E-01,  1.545E-02, -1.501E-01         F               0         Tower X orientation angle, node 5, rad
         47   -8.687E-03,  9.989E-01,  4.558E-02         F               0         Tower Y orientation angle, node 5, rad
         48    1.506E-01, -4.376E-02,  9.876E-01         F               0         Tower Z orientation angle, node 5, rad
         49    9.886E-01,  1.545E-02, -1.501E-01         F               0         Tower X orientation angle, node 6, rad
         50   -8.687E-03,  9.989E-01,  4.558E-02         F               0         Tower Y orientation angle, node 6, rad
         51    1.506E-01, -4.376E-02,  9.876E-01         F               0         Tower Z orientation angle, node 6, rad
         52    9.886E-01,  1.545E-02, -1.501E-01         F               0         Tower X orientation angle, node 7, rad
         53   -8.687E-03,  9.989E-01,  4.558E-02         F               0         Tower Y orientation angle, node 7, rad
         54    1.506E-01, -4.376E-02,  9.876E-01         F               0         Tower Z orientation angle, node 7, rad
         55    9.886E-01,  1.545E-02, -1.501E-01         F               0         Tower X orientation angle, node 8, rad
         56   -8.687E-03,  9.989E-01,  4.558E-02         F               0         Tower Y orientation angle, node 8, rad
         57    1.506E-01, -4.376E-02,  9.876E-01         F               0         Tower Z orientation angle, node 8, rad
         58    9.886E-01,  1.545E-02, -1.501E-01         F               0         Tower X orientation angle, node 9, rad
         59   -8.687E-03,  9.989E-01,  4.558E-02         F               0         Tower Y orientation angle, node 9, rad
         60    1.506E-01, -4.376E-02,  9.876E-01         F               0         Tower Z orientation angle, node 9, rad
         61    9.886E-01,  1.545E-02, -1.501E-01         F               0         Tower X orientation angle, node 10, rad
         62   -8.687E-03,  9.989E-01,  4.558E-02         F               0         Tower Y orientation angle, node 10, rad
         63    1.506E-01, -4.376E-02,  9.876E-01         F               0         Tower Z orientation angle, node 10, rad
         64    9.886E-01,  1.545E-02, -1.501E-01         F               0         Tower X orientation angle, node 11, rad
         65   -8.687E-03,  9.989E-01,  4.558E-02         F               0         Tower Y orientation angle, node 11, rad
         66    1.506E-01, -4.376E-02,  9.876E-01         F               0         Tower Z orientation angle, node 11, rad
         67    4.394E-04                                 F               0         Tower X translation velocity, node 1, m/s
         68    1.434E-02                                 F               0         Tower Y translation velocity, node 1, m/s
         69    5.683E-03                                 F               0         Tower Z translation velocity, node 1, m/s
         70    3.773E-04                                 F               0         Tower X translation velocity, node 2, m/s
         71    2.310E-02                                 F               0         Tower Y translation velocity, node 2, m/s
         72    6.081E-03                                 F               0         Tower Z translation velocity, node 2, m/s
         73    3.153E-04                                 F               0         Tower X translation velocity, node 3, m/s
         74    3.186E-02                                 F               0         Tower Y translation velocity, node 3, m/s
         75    6.478E-03                                 F               0         Tower Z translation velocity, node 3, m/s
         76    2.533E-04                                 F               0         Tower X translation velocity, node 4, m/s
         77    4.062E-02                                 F               0         Tower Y translation velocity, node 4, m/s
         78    6.876E-03                                 F               0         Tower Z translation velocity, node 4, m/s
         79    1.913E-04                                 F               0         Tower X translation velocity, node 5, m/s
         80    4.938E-02                                 F               0         Tower Y translation velocity, node 5, m/s
         81    7.273E-03                                 F               0         Tower Z translation velocity, node 5, m/s
         82    1.292E-04                                 F               0         Tower X translation velocity, node 6, m/s
         83    5.814E-02                                 F               0         Tower Y translation velocity, node 6, m/s
         84    7.671E-03                                 F               0         Tower Z translation velocity, node 6, m/s
         85    6.721E-05                                 F               0         Tower X translation velocity, node 7, m/s
         86    6.690E-02                                 F               0         Tower Y translation velocity, node 7, m/s
         87    8.069E-03                                 F               0         Tower Z translation velocity, node 7, m/s
         88    5.184E-06                                 F               0         Tower X translation velocity, node 8, m/s
         89    7.566E-02                                 F               0         Tower Y translation velocity, node 8, m/s
         90    8.466E-03                                 F               0         Tower Z translation velocity, node 8, m/s
         91   -5.684E-05                                 F               0         Tower X translation velocity, node 9, m/s
         92    8.442E-02                                 F               0         Tower Y translation velocity, node 9, m/s
         93    8.864E-03                                 F               0         Tower Z translation velocity, node 9, m/s
         94   -1.189E-04                                 F               0         Tower X translation velocity, node 10, m/s
         95    9.318E-02                                 F               0         Tower Y translation velocity, node 10, m/s
         96    9.261E-03                                 F               0         Tower Z translation velocity, node 10, m/s
         97   -1.809E-04                                 F               0         Tower X translation velocity, node 11, m/s
         98    1.019E-01                                 F               0         Tower Y translation velocity, node 11, m/s
         99    9.659E-03                                 F               0         Tower Z translation velocity, node 11, m/s
        100    3.510E+01                                 F               0         Hub X translation displacement, node 1, m
        101   -6.947E+00                                 F               0         Hub Y translation displacement, node 1, m
        102   -4.644E-01                                 F               0         Hub Z translation displacement, node 1, m
        103    9.674E-01,  1.993E-02, -2.525E-01         F               0         Hub X orientation angle, node 1, rad
        104    2.500E-01,  8.575E-02,  9.644E-01         F               0         Hub Y orientation angle, node 1, rad
        105    4.088E-02, -9.961E-01,  7.797E-02         F               0         Hub Z orientation angle, node 1, rad
        106    1.012E+00                                 F               0         Hub X rotation velocity, node 1, rad/s
        107    2.086E-02                                 F               0         Hub Y rotation velocity, node 1, rad/s
        108   -2.642E-01                                 F               0         Hub Z rotation velocity, node 1, rad/s
        109    9.595E-01,  1.738E-02, -2.810E-01         F               0         Blade root 1 X orientation angle, node 1, rad
        110    2.786E-01,  8.630E-02,  9.565E-01         F               0         Blade root 1 Y orientation angle, node 1, rad
        111    4.088E-02, -9.961E-01,  7.797E-02         F               0         Blade root 1 Z orientation angle, node 1, rad
        112    9.696E-01,  4.679E-02, -2.401E-01         F               0         Blade root 2 X orientation angle, node 1, rad
        113   -6.085E-02, -9.045E-01, -4.220E-01         F               0         Blade root 2 Y orientation angle, node 1, rad
        114   -2.369E-01,  4.238E-01, -8.742E-01         F               0         Blade root 2 Z orientation angle, node 1, rad
        115    9.717E-01, -4.394E-03, -2.361E-01         F               0         Blade root 3 X orientation angle, node 1, rad
        116   -1.316E-01,  8.200E-01, -5.570E-01         F               0         Blade root 3 Y orientation angle, node 1, rad
        117    1.960E-01,  5.723E-01,  7.963E-01         F               0         Blade root 3 Z orientation angle, node 1, rad
        118    3.474E+01                                 F               0         Blade 1 X translation displacement, node 1, m
        119   -1.247E+01                                 F               0         Blade 1 Y translation displacement, node 1, m
        120   -5.542E+00                                 F               0         Blade 1 Z translation displacement, node 1, m
        121    3.466E+01                                 F               0         Blade 1 X translation displacement, node 2, m
        122   -1.379E+01                                 F               0         Blade 1 Y translation displacement, node 2, m
        123   -6.766E+00                                 F               0         Blade 1 Z translation displacement, node 2, m
        124    3.350E+01                                 F               0         Blade 1 X translation displacement, node 3, m
        125   -3.188E+01                                 F               0         Blade 1 Y translation displacement, node 3, m
        126   -2.340E+01                                 F               0         Blade 1 Z translation displacement, node 3, m
        127    3.326E+01                                 F               0         Blade 1 X translation displacement, node 4, m
        128   -3.573E+01                                 F               0         Blade 1 Y translation displacement, node 4, m
        129   -2.695E+01                                 F               0         Blade 1 Z translation displacement, node 4, m
        130    3.301E+01                                 F               0         Blade 1 X translation displacement, node 5, m
        131   -3.958E+01                                 F               0         Blade 1 Y translation displacement, node 5, m
        132   -3.049E+01                                 F               0         Blade 1 Z translation displacement, node 5, m
        133    3.277E+01                                 F               0         Blade 1 X translation displacement, node 6, m
        134   -4.343E+01                                 F               0         Blade 1 Y translation displacement, node 6, m
        135   -3.404E+01                                 F               0         Blade 1 Z translation displacement, node 6, m
        136    3.252E+01                                 F               0         Blade 1 X translation displacement, node 7, m
        137   -4.729E+01                                 F               0         Blade 1 Y translation displacement, node 7, m
        138   -3.758E+01                                 F               0         Blade 1 Z translation displacement, node 7, m
        139    3.227E+01                                 F               0         Blade 1 X translation displacement, node 8, m
        140   -5.114E+01                                 F               0         Blade 1 Y translation displacement, node 8, m
        141   -4.113E+01                                 F               0         Blade 1 Z translation displacement, node 8, m
        142    3.203E+01                                 F               0         Blade 1 X translation displacement, node 9, m
        143   -5.499E+01                                 F               0         Blade 1 Y translation displacement, node 9, m
        144   -4.467E+01                                 F               0         Blade 1 Z translation displacement, node 9, m
        145    3.178E+01                                 F               0         Blade 1 X translation displacement, node 10, m
        146   -5.885E+01                                 F               0         Blade 1 Y translation displacement, node 10, m
        147   -4.822E+01                                 F               0         Blade 1 Z translation displacement, node 10, m
        148    3.153E+01                                 F               0         Blade 1 X translation displacement, node 11, m
        149   -6.270E+01                                 F               0         Blade 1 Y translation displacement, node 11, m
        150   -5.176E+01                                 F               0         Blade 1 Z translation displacement, node 11, m
        151    3.129E+01                                 F               0         Blade 1 X translation displacement, node 12, m
        152   -6.655E+01                                 F               0         Blade 1 Y translation displacement, node 12, m
        153   -5.531E+01                                 F               0         Blade 1 Z translation displacement, node 12, m
        154    3.104E+01                                 F               0         Blade 1 X translation displacement, node 13, m
        155   -7.040E+01                                 F               0         Blade 1 Y translation displacement, node 13, m
        156   -5.885E+01                                 F               0         Blade 1 Z translation displacement, node 13, m
        157    3.080E+01                                 F               0         Blade 1 X translation displacement, node 14, m
        158   -7.426E+01                                 F               0         Blade 1 Y translation displacement, node 14, m
        159   -6.240E+01                                 F               0         Blade 1 Z translation displacement, node 14, m
        160    3.055E+01                                 F               0         Blade 1 X translation displacement, node 15, m
        161   -7.811E+01                                 F               0         Blade 1 Y translation displacement, node 15, m
        162   -6.594E+01                                 F               0         Blade 1 Z translation displacement, node 15, m
        163    3.030E+01                                 F               0         Blade 1 X translation displacement, node 16, m
        164   -8.196E+01                                 F               0         Blade 1 Y translation displacement, node 16, m
        165   -6.949E+01                                 F               0         Blade 1 Z translation displacement, node 16, m
        166    3.006E+01                                 F               0         Blade 1 X translation displacement, node 17, m
        167   -8.581E+01                                 F               0         Blade 1 Y translation displacement, node 17, m
        168   -7.303E+01                                 F               0         Blade 1 Z translation displacement, node 17, m
        169    2.981E+01                                 F               0         Blade 1 X translation displacement, node 18, m
        170   -8.967E+01                                 F               0         Blade 1 Y translation displacement, node 18, m
        171   -7.658E+01                                 F               0         Blade 1 Z translation displacement, node 18, m
        172    2.956E+01                                 F               0         Blade 1 X translation displacement, node 19, m
        173   -9.352E+01                                 F               0         Blade 1 Y translation displacement, node 19, m
        174   -8.012E+01                                 F               0         Blade 1 Z translation displacement, node 19, m
        175    2.932E+01                                 F               0         Blade 1 X translation displacement, node 20, m
        176   -9.737E+01                                 F               0         Blade 1 Y translation displacement, node 20, m
        177   -8.367E+01                                 F               0         Blade 1 Z translation displacement, node 20, m
        178    2.907E+01                                 F               0         Blade 1 X translation displacement, node 21, m
        179   -1.012E+02                                 F               0         Blade 1 Y translation displacement, node 21, m
        180   -8.721E+01                                 F               0         Blade 1 Z translation displacement, node 21, m
        181    2.883E+01                                 F               0         Blade 1 X translation displacement, node 22, m
        182   -1.051E+02                                 F               0         Blade 1 Y translation displacement, node 22, m
        183   -9.076E+01                                 F               0         Blade 1 Z translation displacement, node 22, m
        184    2.858E+01                                 F               0         Blade 1 X translation displacement, node 23, m
        185   -1.089E+02                                 F               0         Blade 1 Y translation displacement, node 23, m
        186   -9.430E+01                                 F               0         Blade 1 Z translation displacement, node 23, m
        187    2.833E+01                                 F               0         Blade 1 X translation displacement, node 24, m
        188   -1.128E+02                                 F               0         Blade 1 Y translation displacement, node 24, m
        189   -9.785E+01                                 F               0         Blade 1 Z translation displacement, node 24, m
        190    2.809E+01                                 F               0         Blade 1 X translation displacement, node 25, m
        191   -1.166E+02                                 F               0         Blade 1 Y translation displacement, node 25, m
        192   -1.014E+02                                 F               0         Blade 1 Z translation displacement, node 25, m
        193    2.784E+01                                 F               0         Blade 1 X translation displacement, node 26, m
        194   -1.205E+02                                 F               0         Blade 1 Y translation displacement, node 26, m
        195   -1.049E+02                                 F               0         Blade 1 Z translation displacement, node 26, m
        196    2.760E+01                                 F               0         Blade 1 X translation displacement, node 27, m
        197   -1.243E+02                                 F               0         Blade 1 Y translation displacement, node 27, m
        198   -1.085E+02                                 F               0         Blade 1 Z translation displacement, node 27, m
        199    2.739E+01                                 F               0         Blade 1 X translation displacement, node 28, m
        200   -1.276E+02                                 F               0         Blade 1 Y translation displacement, node 28, m
        201   -1.115E+02                                 F               0         Blade 1 Z translation displacement, node 28, m
        202    7.269E-01, -2.388E-02, -6.863E-01         F               0         Blade 1 X orientation angle, node 1, rad
        203    6.855E-01,  8.473E-02,  7.231E-01         F               0         Blade 1 Y orientation angle, node 1, rad
        204    4.088E-02, -9.961E-01,  7.797E-02         F               0         Blade 1 Z orientation angle, node 1, rad
        205    7.269E-01, -2.388E-02, -6.863E-01         F               0         Blade 1 X orientation angle, node 2, rad
        206    6.855E-01,  8.473E-02,  7.231E-01         F               0         Blade 1 Y orientation angle, node 2, rad
        207    4.088E-02, -9.961E-01,  7.797E-02         F               0         Blade 1 Z orientation angle, node 2, rad
        208    8.687E-01, -3.121E-03, -4.953E-01         F               0         Blade 1 X orientation angle, node 3, rad
        209    4.937E-01,  8.798E-02,  8.652E-01         F               0         Blade 1 Y orientation angle, node 3, rad
        210    4.088E-02, -9.961E-01,  7.797E-02         F               0         Blade 1 Z orientation angle, node 3, rad
        211    8.888E-01,  5.961E-04, -4.584E-01         F               0         Blade 1 X orientation angle, node 4, rad
        212    4.565E-01,  8.803E-02,  8.853E-01         F               0         Blade 1 Y orientation angle, node 4, rad
        213    4.088E-02, -9.961E-01,  7.797E-02         F               0         Blade 1 Z orientation angle, node 4, rad
        214    9.034E-01,  3.515E-03, -4.288E-01         F               0         Blade 1 X orientation angle, node 5, rad
        215    4.268E-01,  8.796E-02,  9.001E-01         F               0         Blade 1 Y orientation angle, node 5, rad
        216    4.088E-02, -9.961E-01,  7.797E-02         F               0         Blade 1 Z orientation angle, node 5, rad
        217    9.144E-01,  5.847E-03, -4.047E-01         F               0         Blade 1 X orientation angle, node 6, rad
        218    4.027E-01,  8.784E-02,  9.111E-01         F               0         Blade 1 Y orientation angle, node 6, rad
        219    4.088E-02, -9.961E-01,  7.797E-02         F               0         Blade 1 Z orientation angle, node 6, rad
        220    9.230E-01,  7.761E-03, -3.848E-01         F               0         Blade 1 X orientation angle, node 7, rad
        221    3.827E-01,  8.769E-02,  9.197E-01         F               0         Blade 1 Y orientation angle, node 7, rad
        222    4.088E-02, -9.961E-01,  7.797E-02         F               0         Blade 1 Z orientation angle, node 7, rad
        223    9.298E-01,  9.352E-03, -3.680E-01         F               0         Blade 1 X orientation angle, node 8, rad
        224    3.658E-01,  8.754E-02,  9.266E-01         F               0         Blade 1 Y orientation angle, node 8, rad
        225    4.088E-02, -9.961E-01,  7.797E-02         F               0         Blade 1 Z orientation angle, node 8, rad
        226    9.353E-01,  1.069E-02, -3.537E-01         F               0         Blade 1 X orientation angle, node 9, rad
        227    3.515E-01,  8.738E-02,  9.321E-01         F               0         Blade 1 Y orientation angle, node 9, rad