
Linearized model: Predictions were generated on 30-Jan-2024 at 18:20:32 using OpenFAST, compiled as a 64-bit application using single precision at commit v3.5.1
 linked with  NWTC Subroutine Library; ElastoDyn; InflowWind; AeroDyn; ServoDyn; HydroDyn; MAP++ (<1.20.10>, <Oct-20-2023>)

Description from the FAST input file: CCT-9 Campign 4 model. Input files to be run with OpenFAST 3.5.0. GitHub branch from Lu Wang (https://github.com/luwang00/openfast/tree/dev) compiled on March 7, 2023.

Simulation information:
   Simulation time:                   506.1750 s
   Rotor Speed:                         0.8795 rad/s
   Azimuth:                             4.3076 rad
   Wind Speed:                         10.0000 m/s
   Number of continuous states:         0
   Number of discrete states:           0
   Number of constraint states:         0
   Number of inputs:                 1746
   Number of outputs:                   4
   Jacobians included in this file?    No

Order of inputs:
     Column   Operating Point                     Rotating Frame? Derivative Order Description
   ---------- ---------------                     --------------- ---------------- -----------
          1    1.097E+01                                 F               0         Tower X translation displacement, node 1, m
          2   -1.124E+00                                 F               0         Tower Y translation displacement, node 1, m
          3   -2.958E-01                                 F               0         Tower Z translation displacement, node 1, m
          4    1.239E+01                                 F               0         Tower X translation displacement, node 2, m
          5   -1.643E+00                                 F               0         Tower Y translation displacement, node 2, m
          6   -3.885E-01                                 F               0         Tower Z translation displacement, node 2, m
          7    1.381E+01                                 F               0         Tower X translation displacement, node 3, m
          8   -2.161E+00                                 F               0         Tower Y translation displacement, node 3, m
          9   -4.812E-01                                 F               0         Tower Z translation displacement, node 3, m
         10    1.523E+01                                 F               0         Tower X translation displacement, node 4, m
         11   -2.680E+00                                 F               0         Tower Y translation displacement, node 4, m
         12   -5.739E-01                                 F               0         Tower Z translation displacement, node 4, m
         13    1.665E+01                                 F               0         Tower X translation displacement, node 5, m
         14   -3.198E+00                                 F               0         Tower Y translation displacement, node 5, m
         15   -6.665E-01                                 F               0         Tower Z translation displacement, node 5, m
         16    1.806E+01                                 F               0         Tower X translation displacement, node 6, m
         17   -3.716E+00                                 F               0         Tower Y translation displacement, node 6, m
         18   -7.592E-01                                 F               0         Tower Z translation displacement, node 6, m
         19    1.948E+01                                 F               0         Tower X translation displacement, node 7, m
         20   -4.235E+00                                 F               0         Tower Y translation displacement, node 7, m
         21   -8.519E-01                                 F               0         Tower Z translation displacement, node 7, m
         22    2.090E+01                                 F               0         Tower X translation displacement, node 8, m
         23   -4.753E+00                                 F               0         Tower Y translation displacement, node 8, m
         24   -9.446E-01                                 F               0         Tower Z translation displacement, node 8, m
         25    2.232E+01                                 F               0         Tower X translation displacement, node 9, m
         26   -5.272E+00                                 F               0         Tower Y translation displacement, node 9, m
         27   -1.037E+00                                 F               0         Tower Z translation displacement, node 9, m
         28    2.374E+01                                 F               0         Tower X translation displacement, node 10, m
         29   -5.790E+00                                 F               0         Tower Y translation displacement, node 10, m
         30   -1.130E+00                                 F               0         Tower Z translation displacement, node 10, m
         31    2.516E+01                                 F               0         Tower X translation displacement, node 11, m
         32   -6.309E+00                                 F               0         Tower Y translation displacement, node 11, m
         33   -1.223E+00                                 F               0         Tower Z translation displacement, node 11, m
         34    9.934E-01,  9.755E-03, -1.145E-01         F               0         Tower X orientation angle, node 1, rad
         35   -4.876E-03,  9.991E-01,  4.281E-02         F               0         Tower Y orientation angle, node 1, rad
         36    1.148E-01, -4.196E-02,  9.925E-01         F               0         Tower Z orientation angle, node 1, rad
         37    9.934E-01,  9.755E-03, -1.145E-01         F               0         Tower X orientation angle, node 2, rad
         38   -4.876E-03,  9.991E-01,  4.281E-02         F               0         Tower Y orientation angle, node 2, rad
         39    1.148E-01, -4.196E-02,  9.925E-01         F               0         Tower Z orientation angle, node 2, rad
         40    9.934E-01,  9.755E-03, -1.145E-01         F               0         Tower X orientation angle, node 3, rad
         41   -4.876E-03,  9.991E-01,  4.281E-02         F               0         Tower Y orientation angle, node 3, rad
         42    1.148E-01, -4.196E-02,  9.925E-01         F               0         Tower Z orientation angle, node 3, rad
         43    9.934E-01,  9.755E-03, -1.145E-01         F               0         Tower X orientation angle, node 4, rad
         44   -4.876E-03,  9.991E-01,  4.281E-02         F               0         Tower Y orientation angle, node 4, rad
         45    1.148E-01, -4.196E-02,  9.925E-01         F               0         Tower Z orientation angle, node 4, rad
         46    9.934E-01,  9.755E-03, -1.145E-01         F               0         Tower X orientation angle, node 5, rad
         47   -4.876E-03,  9.991E-01,  4.281E-02         F               0         Tower Y orientation angle, node 5, rad
         48    1.148E-01, -4.196E-02,  9.925E-01         F               0         Tower Z orientation angle, node 5, rad
         49    9.934E-01,  9.755E-03, -1.145E-01         F               0         Tower X orientation angle, node 6, rad
         50   -4.876E-03,  9.991E-01,  4.281E-02         F               0         Tower Y orientation angle, node 6, rad
         51    1.148E-01, -4.196E-02,  9.925E-01         F               0         Tower Z orientation angle, node 6, rad
         52    9.934E-01,  9.755E-03, -1.145E-01         F               0         Tower X orientation angle, node 7, rad
         53   -4.876E-03,  9.991E-01,  4.281E-02         F               0         Tower Y orientation angle, node 7, rad
         54    1.148E-01, -4.196E-02,  9.925E-01         F               0         Tower Z orientation angle, node 7, rad
         55    9.934E-01,  9.755E-03, -1.145E-01         F               0         Tower X orientation angle, node 8, rad
         56   -4.876E-03,  9.991E-01,  4.281E-02         F               0         Tower Y orientation angle, node 8, rad
         57    1.148E-01, -4.196E-02,  9.925E-01         F               0         Tower Z orientation angle, node 8, rad
         58    9.934E-01,  9.755E-03, -1.145E-01         F               0         Tower X orientation angle, node 9, rad
         59   -4.876E-03,  9.991E-01,  4.281E-02         F               0         Tower Y orientation angle, node 9, rad
         60    1.148E-01, -4.196E-02,  9.925E-01         F               0         Tower Z orientation angle, node 9, rad
         61    9.934E-01,  9.755E-03, -1.145E-01         F               0         Tower X orientation angle, node 10, rad
         62   -4.876E-03,  9.991E-01,  4.281E-02         F               0         Tower Y orientation angle, node 10, rad
         63    1.148E-01, -4.196E-02,  9.925E-01         F               0         Tower Z orientation angle, node 10, rad
         64    9.934E-01,  9.755E-03, -1.145E-01         F               0         Tower X orientation angle, node 11, rad
         65   -4.876E-03,  9.991E-01,  4.281E-02         F               0         Tower Y orientation angle, node 11, rad
         66    1.148E-01, -4.196E-02,  9.925E-01         F               0         Tower Z orientation angle, node 11, rad
         67   -4.150E-03                                 F               0         Tower X translation velocity, node 1, m/s
         68   -5.804E-03                                 F               0         Tower Y translation velocity, node 1, m/s
         69    4.220E-03                                 F               0         Tower Z translation velocity, node 1, m/s
         70   -3.939E-03                                 F               0         Tower X translation velocity, node 2, m/s
         71   -9.628E-03                                 F               0         Tower Y translation velocity, node 2, m/s
         72    4.034E-03                                 F               0         Tower Z translation velocity, node 2, m/s
         73   -3.729E-03                                 F               0         Tower X translation velocity, node 3, m/s
         74   -1.345E-02                                 F               0         Tower Y translation velocity, node 3, m/s
         75    3.848E-03                                 F               0         Tower Z translation velocity, node 3, m/s
         76   -3.518E-03                                 F               0         Tower X translation velocity, node 4, m/s
         77   -1.728E-02                                 F               0         Tower Y translation velocity, node 4, m/s
         78    3.662E-03                                 F               0         Tower Z translation velocity, node 4, m/s
         79   -3.307E-03                                 F               0         Tower X translation velocity, node 5, m/s
         80   -2.110E-02                                 F               0         Tower Y translation velocity, node 5, m/s
         81    3.476E-03                                 F               0         Tower Z translation velocity, node 5, m/s
         82   -3.096E-03                                 F               0         Tower X translation velocity, node 6, m/s
         83   -2.493E-02                                 F               0         Tower Y translation velocity, node 6, m/s
         84    3.290E-03                                 F               0         Tower Z translation velocity, node 6, m/s
         85   -2.886E-03                                 F               0         Tower X translation velocity, node 7, m/s
         86   -2.875E-02                                 F               0         Tower Y translation velocity, node 7, m/s
         87    3.104E-03                                 F               0         Tower Z translation velocity, node 7, m/s
         88   -2.675E-03                                 F               0         Tower X translation velocity, node 8, m/s
         89   -3.257E-02                                 F               0         Tower Y translation velocity, node 8, m/s
         90    2.918E-03                                 F               0         Tower Z translation velocity, node 8, m/s
         91   -2.464E-03                                 F               0         Tower X translation velocity, node 9, m/s
         92   -3.640E-02                                 F               0         Tower Y translation velocity, node 9, m/s
         93    2.731E-03                                 F               0         Tower Z translation velocity, node 9, m/s
         94   -2.253E-03                                 F               0         Tower X translation velocity, node 10, m/s
         95   -4.022E-02                                 F               0         Tower Y translation velocity, node 10, m/s
         96    2.545E-03                                 F               0         Tower Z translation velocity, node 10, m/s
         97   -2.042E-03                                 F               0         Tower X translation velocity, node 11, m/s
         98   -4.405E-02                                 F               0         Tower Y translation velocity, node 11, m/s
         99    2.359E-03                                 F               0         Tower Z translation velocity, node 11, m/s
        100    2.613E+01                                 F               0         Hub X translation displacement, node 1, m
        101   -6.744E+00                                 F               0         Hub Y translation displacement, node 1, m
        102   -4.465E-02                                 F               0         Hub Z translation displacement, node 1, m
        103    9.759E-01,  1.409E-02, -2.176E-01         F               0         Hub X orientation angle, node 1, rad
        104   -1.985E-01, -3.561E-01, -9.131E-01         F               0         Hub Y orientation angle, node 1, rad
        105   -9.036E-02,  9.344E-01, -3.447E-01         F               0         Hub Z orientation angle, node 1, rad
        106    8.586E-01                                 F               0         Hub X rotation velocity, node 1, rad/s
        107    1.241E-02                                 F               0         Hub Y rotation velocity, node 1, rad/s
        108   -1.915E-01                                 F               0         Hub Z rotation velocity, node 1, rad/s
        109    9.814E-01,  2.465E-02, -1.905E-01         F               0         Blade root 1 X orientation angle, node 1, rad
        110   -1.695E-01, -3.555E-01, -9.192E-01         F               0         Blade root 1 Y orientation angle, node 1, rad
        111   -9.036E-02,  9.344E-01, -3.447E-01         F               0         Blade root 1 Z orientation angle, node 1, rad
        112    9.749E-01, -1.520E-02, -2.222E-01         F               0         Blade root 2 X orientation angle, node 1, rad
        113    4.994E-02,  9.872E-01,  1.515E-01         F               0         Blade root 2 Y orientation angle, node 1, rad
        114    2.171E-01, -1.588E-01,  9.631E-01         F               0         Blade root 2 Z orientation angle, node 1, rad
        115    9.702E-01,  3.281E-02, -2.399E-01         F               0         Blade root 3 X orientation angle, node 1, rad
        116    2.064E-01, -6.304E-01,  7.483E-01         F               0         Blade root 3 Y orientation angle, node 1, rad
        117   -1.267E-01, -7.755E-01, -6.185E-01         F               0         Blade root 3 Z orientation angle, node 1, rad
        118    2.505E+01                                 F               0         Blade 1 X translation displacement, node 1, m
        119   -1.567E+00                                 F               0         Blade 1 Y translation displacement, node 1, m
        120   -7.464E+00                                 F               0         Blade 1 Z translation displacement, node 1, m
        121    2.479E+01                                 F               0         Blade 1 X translation displacement, node 2, m
        122   -3.200E-01                                 F               0         Blade 1 Y translation displacement, node 2, m
        123   -9.252E+00                                 F               0         Blade 1 Z translation displacement, node 2, m
        124    2.125E+01                                 F               0         Blade 1 X translation displacement, node 3, m
        125    1.664E+01                                 F               0         Blade 1 Y translation displacement, node 3, m
        126   -3.356E+01                                 F               0         Blade 1 Z translation displacement, node 3, m
        127    2.050E+01                                 F               0         Blade 1 X translation displacement, node 4, m
        128    2.025E+01                                 F               0         Blade 1 Y translation displacement, node 4, m
        129   -3.874E+01                                 F               0         Blade 1 Z translation displacement, node 4, m
        130    1.975E+01                                 F               0         Blade 1 X translation displacement, node 5, m
        131    2.387E+01                                 F               0         Blade 1 Y translation displacement, node 5, m
        132   -4.392E+01                                 F               0         Blade 1 Z translation displacement, node 5, m
        133    1.899E+01                                 F               0         Blade 1 X translation displacement, node 6, m
        134    2.748E+01                                 F               0         Blade 1 Y translation displacement, node 6, m
        135   -4.910E+01                                 F               0         Blade 1 Z translation displacement, node 6, m
        136    1.824E+01                                 F               0         Blade 1 X translation displacement, node 7, m
        137    3.110E+01                                 F               0         Blade 1 Y translation displacement, node 7, m
        138   -5.428E+01                                 F               0         Blade 1 Z translation displacement, node 7, m
        139    1.748E+01                                 F               0         Blade 1 X translation displacement, node 8, m
        140    3.471E+01                                 F               0         Blade 1 Y translation displacement, node 8, m
        141   -5.946E+01                                 F               0         Blade 1 Z translation displacement, node 8, m
        142    1.673E+01                                 F               0         Blade 1 X translation displacement, node 9, m
        143    3.832E+01                                 F               0         Blade 1 Y translation displacement, node 9, m
        144   -6.464E+01                                 F               0         Blade 1 Z translation displacement, node 9, m
        145    1.598E+01                                 F               0         Blade 1 X translation displacement, node 10, m
        146    4.194E+01                                 F               0         Blade 1 Y translation displacement, node 10, m
        147   -6.982E+01                                 F               0         Blade 1 Z translation displacement, node 10, m
        148    1.522E+01                                 F               0         Blade 1 X translation displacement, node 11, m
        149    4.555E+01                                 F               0         Blade 1 Y translation displacement, node 11, m
        150   -7.500E+01                                 F               0         Blade 1 Z translation displacement, node 11, m
        151    1.447E+01                                 F               0         Blade 1 X translation displacement, node 12, m
        152    4.917E+01                                 F               0         Blade 1 Y translation displacement, node 12, m
        153   -8.018E+01                                 F               0         Blade 1 Z translation displacement, node 12, m
        154    1.372E+01                                 F               0         Blade 1 X translation displacement, node 13, m
        155    5.278E+01                                 F               0         Blade 1 Y translation displacement, node 13, m
        156   -8.536E+01                                 F               0         Blade 1 Z translation displacement, node 13, m
        157    1.296E+01                                 F               0         Blade 1 X translation displacement, node 14, m
        158    5.639E+01                                 F               0         Blade 1 Y translation displacement, node 14, m
        159   -9.054E+01                                 F               0         Blade 1 Z translation displacement, node 14, m
        160    1.221E+01                                 F               0         Blade 1 X translation displacement, node 15, m
        161    6.001E+01                                 F               0         Blade 1 Y translation displacement, node 15, m
        162   -9.572E+01                                 F               0         Blade 1 Z translation displacement, node 15, m
        163    1.145E+01                                 F               0         Blade 1 X translation displacement, node 16, m
        164    6.362E+01                                 F               0         Blade 1 Y translation displacement, node 16, m
        165   -1.009E+02                                 F               0         Blade 1 Z translation displacement, node 16, m
        166    1.070E+01                                 F               0         Blade 1 X translation displacement, node 17, m
        167    6.723E+01                                 F               0         Blade 1 Y translation displacement, node 17, m
        168   -1.061E+02                                 F               0         Blade 1 Z translation displacement, node 17, m
        169    9.947E+00                                 F               0         Blade 1 X translation displacement, node 18, m
        170    7.085E+01                                 F               0         Blade 1 Y translation displacement, node 18, m
        171   -1.113E+02                                 F               0         Blade 1 Z translation displacement, node 18, m
        172    9.193E+00                                 F               0         Blade 1 X translation displacement, node 19, m
        173    7.446E+01                                 F               0         Blade 1 Y translation displacement, node 19, m
        174   -1.164E+02                                 F               0         Blade 1 Z translation displacement, node 19, m
        175    8.440E+00                                 F               0         Blade 1 X translation displacement, node 20, m
        176    7.808E+01                                 F               0         Blade 1 Y translation displacement, node 20, m
        177   -1.216E+02                                 F               0         Blade 1 Z translation displacement, node 20, m
        178    7.686E+00                                 F               0         Blade 1 X translation displacement, node 21, m
        179    8.169E+01                                 F               0         Blade 1 Y translation displacement, node 21, m
        180   -1.268E+02                                 F               0         Blade 1 Z translation displacement, node 21, m
        181    6.932E+00                                 F               0         Blade 1 X translation displacement, node 22, m
        182    8.530E+01                                 F               0         Blade 1 Y translation displacement, node 22, m
        183   -1.320E+02                                 F               0         Blade 1 Z translation displacement, node 22, m
        184    6.178E+00                                 F               0         Blade 1 X translation displacement, node 23, m
        185    8.892E+01                                 F               0         Blade 1 Y translation displacement, node 23, m
        186   -1.372E+02                                 F               0         Blade 1 Z translation displacement, node 23, m
        187    5.425E+00                                 F               0         Blade 1 X translation displacement, node 24, m
        188    9.253E+01                                 F               0         Blade 1 Y translation displacement, node 24, m
        189   -1.423E+02                                 F               0         Blade 1 Z translation displacement, node 24, m
        190    4.671E+00                                 F               0         Blade 1 X translation displacement, node 25, m
        191    9.614E+01                                 F               0         Blade 1 Y translation displacement, node 25, m
        192   -1.475E+02                                 F               0         Blade 1 Z translation displacement, node 25, m
        193    3.917E+00                                 F               0         Blade 1 X translation displacement, node 26, m
        194    9.976E+01                                 F               0         Blade 1 Y translation displacement, node 26, m
        195   -1.527E+02                                 F               0         Blade 1 Z translation displacement, node 26, m
        196    3.163E+00                                 F               0         Blade 1 X translation displacement, node 27, m
        197    1.034E+02                                 F               0         Blade 1 Y translation displacement, node 27, m
        198   -1.579E+02                                 F               0         Blade 1 Z translation displacement, node 27, m
        199    2.524E+00                                 F               0         Blade 1 X translation displacement, node 28, m
        200    1.064E+02                                 F               0         Blade 1 Y translation displacement, node 28, m
        201   -1.623E+02                                 F               0         Blade 1 Z translation displacement, node 28, m
        202    9.507E-01,  1.840E-01,  2.497E-01         F               0         Blade 1 X orientation angle, node 1, rad
        203    2.967E-01, -3.051E-01, -9.049E-01         F               0         Blade 1 Y orientation angle, node 1, rad
        204   -9.036E-02,  9.344E-01, -3.447E-01         F               0         Blade 1 Z orientation angle, node 1, rad
        205    9.507E-01,  1.840E-01,  2.497E-01         F               0         Blade 1 X orientation angle, node 2, rad
        206    2.967E-01, -3.051E-01, -9.049E-01         F               0         Blade 1 Y orientation angle, node 2, rad
        207   -9.036E-02,  9.344E-01, -3.447E-01         F               0         Blade 1 Z orientation angle, node 2, rad
        208    9.939E-01,  1.065E-01,  2.808E-02         F               0         Blade 1 X orientation angle, node 3, rad
        209    6.294E-02, -3.401E-01, -9.383E-01         F               0         Blade 1 Y orientation angle, node 3, rad
        210   -9.036E-02,  9.344E-01, -3.447E-01         F               0         Blade 1 Z orientation angle, node 3, rad
        211    9.957E-01,  9.202E-02, -1.156E-02         F               0         Blade 1 X orientation angle, node 4, rad
        212    2.091E-02, -3.443E-01, -9.386E-01         F               0         Blade 1 Y orientation angle, node 4, rad
        213   -9.036E-02,  9.344E-01, -3.447E-01         F               0         Blade 1 Z orientation angle, node 4, rad
        214    9.958E-01,  8.056E-02, -4.268E-02         F               0         Blade 1 X orientation angle, node 5, rad
        215   -1.211E-02, -3.471E-01, -9.377E-01         F               0         Blade 1 Y orientation angle, node 5, rad
        216   -9.036E-02,  9.344E-01, -3.447E-01         F               0         Blade 1 Z orientation angle, node 5, rad
        217    9.952E-01,  7.132E-02, -6.754E-02         F               0         Blade 1 X orientation angle, node 6, rad
        218   -3.852E-02, -3.491E-01, -9.363E-01         F               0         Blade 1 Y orientation angle, node 6, rad
        219   -9.036E-02,  9.344E-01, -3.447E-01         F               0         Blade 1 Z orientation angle, node 6, rad
        220    9.941E-01,  6.369E-02, -8.795E-02         F               0         Blade 1 X orientation angle, node 7, rad
        221   -6.022E-02, -3.506E-01, -9.346E-01         F               0         Blade 1 Y orientation angle, node 7, rad
        222   -9.036E-02,  9.344E-01, -3.447E-01         F               0         Blade 1 Z orientation angle, node 7, rad
        223    9.928E-01,  5.732E-02, -1.049E-01         F               0         Blade 1 X orientation angle, node 8, rad
        224   -7.825E-02, -3.517E-01, -9.328E-01         F               0         Blade 1 Y orientation angle, node 8, rad
        225   -9.036E-02,  9.344E-01, -3.447E-01         F               0         Blade 1 Z orientation angle, node 8, rad
        226    9.915E-01,  5.191E-02, -1.192E-01         F               0         Blade 1 X orientation angle, node 9, rad
        227   -9.349E-02, -3.525E-01, -9.311E-01         F               0         Blade 1 Y orientation angle, node 9, rad