
Linearized model: Predictions were generated on 30-Jan-2024 at 18:20:32 using OpenFAST, compiled as a 64-bit application using single precision at commit v3.5.1
 linked with  NWTC Subroutine Library; ElastoDyn; InflowWind; AeroDyn; ServoDyn; HydroDyn; MAP++ (<1.20.10>, <Oct-20-2023>)

Description from the FAST input file: CCT-9 Campign 4 model. Input files to be run with OpenFAST 3.5.0. GitHub branch from Lu Wang (https://github.com/luwang00/openfast/tree/dev) compiled on March 7, 2023.

Simulation information:
   Simulation time:                   501.7500 s
   Rotor Speed:                         0.8794 rad/s
   Azimuth:                             0.4161 rad
   Wind Speed:                         10.0000 m/s
   Number of continuous states:        14
   Number of discrete states:           0
   Number of constraint states:         0
   Number of inputs:                 3988
   Number of outputs:                  36
   Jacobians included in this file?    No

Order of continuous states:
   Row/Column Operating Point                     Rotating Frame? Derivative Order Description
   ---------- ---------------                     --------------- ---------------- -----------
          1    8.881E+00                                 F               2         ED Platform horizontal surge translation DOF (internal DOF index = DOF_Sg), m
          2   -3.601E-01                                 F               2         ED Platform horizontal sway translation DOF (internal DOF index = DOF_Sw), m
          3   -1.728E-01                                 F               2         ED Platform vertical heave translation DOF (internal DOF index = DOF_Hv), m
          4    4.226E-02                                 F               2         ED Platform roll tilt rotation DOF (internal DOF index = DOF_R), rad
          5    1.154E-01                                 F               2         ED Platform pitch tilt rotation DOF (internal DOF index = DOF_P), rad
          6    7.576E-03                                 F               2         ED Platform yaw rotation DOF (internal DOF index = DOF_Y), rad
          7    5.129E+00                                 F               2         ED Variable speed generator DOF (internal DOF index = DOF_GeAz), rad
          8   -3.221E-03                                 F               2         ED First time derivative of Platform horizontal surge translation DOF (internal DOF index = DOF_Sg), m/s
          9    2.427E-03                                 F               2         ED First time derivative of Platform horizontal sway translation DOF (internal DOF index = DOF_Sw), m/s
         10    5.980E-04                                 F               2         ED First time derivative of Platform vertical heave translation DOF (internal DOF index = DOF_Hv), m/s
         11   -1.010E-04                                 F               2         ED First time derivative of Platform roll tilt rotation DOF (internal DOF index = DOF_R), rad/s
         12    2.054E-05                                 F               2         ED First time derivative of Platform pitch tilt rotation DOF (internal DOF index = DOF_P), rad/s
         13   -1.065E-05                                 F               2         ED First time derivative of Platform yaw rotation DOF (internal DOF index = DOF_Y), rad/s
         14    8.794E-01                                 F               2         ED First time derivative of Variable speed generator DOF (internal DOF index = DOF_GeAz), rad/s

Order of continuous state derivatives:
   Row/Column Operating Point                     Rotating Frame? Derivative Order Description
   ---------- ---------------                     --------------- ---------------- -----------
          1   -3.221E-03                                 F               2         First time derivative of ED Platform horizontal surge translation DOF (internal DOF index = DOF_Sg), m/s
          2    2.427E-03                                 F               2         First time derivative of ED Platform horizontal sway translation DOF (internal DOF index = DOF_Sw), m/s
          3    5.980E-04                                 F               2         First time derivative of ED Platform vertical heave translation DOF (internal DOF index = DOF_Hv), m/s
          4   -1.010E-04                                 F               2         First time derivative of ED Platform roll tilt rotation DOF (internal DOF index = DOF_R), rad/s
          5    2.054E-05                                 F               2         First time derivative of ED Platform pitch tilt rotation DOF (internal DOF index = DOF_P), rad/s
          6   -1.065E-05                                 F               2         First time derivative of ED Platform yaw rotation DOF (internal DOF index = DOF_Y), rad/s
          7    8.794E-01                                 F               2         First time derivative of ED Variable speed generator DOF (internal DOF index = DOF_GeAz), rad/s
          8   -2.878E-04                                 F               2         First time derivative of ED First time derivative of Platform horizontal surge translation DOF (internal DOF index = DOF_Sg), m/s/s
          9   -1.050E-04                                 F               2         First time derivative of ED First time derivative of Platform horizontal sway translation DOF (internal DOF index = DOF_Sw), m/s/s
         10    1.588E-03                                 F               2         First time derivative of ED First time derivative of Platform vertical heave translation DOF (internal DOF index = DOF_Hv), m/s/s
         11    6.728E-05                                 F               2         First time derivative of ED First time derivative of Platform roll tilt rotation DOF (internal DOF index = DOF_R), rad/s/s
         12    4.763E-06                                 F               2         First time derivative of ED First time derivative of Platform pitch tilt rotation DOF (internal DOF index = DOF_P), rad/s/s
         13   -1.821E-05                                 F               2         First time derivative of ED First time derivative of Platform yaw rotation DOF (internal DOF index = DOF_Y), rad/s/s
         14   -1.517E-04                                 F               2         First time derivative of ED First time derivative of Variable speed generator DOF (internal DOF index = DOF_GeAz), rad/s/s

Order of inputs:
     Column   Operating Point                     Rotating Frame? Derivative Order Description
   ---------- ---------------                     --------------- ---------------- -----------
          1   -1.080E+01                                 F               0         IfW X-component position of node 1 (hub), m
          2    0.000E+00                                 F               0         IfW Y-component position of node 1 (hub), m
          3    1.497E+02                                 F               0         IfW Z-component position of node 1 (hub), m
          4    1.645E+01                                 F               0         IfW X-component position of node 2 (blade 1, node 1), m
          5   -9.124E+00                                 F               0         IfW Y-component position of node 2 (blade 1, node 1), m
          6    1.545E+02                                 F               0         IfW Z-component position of node 2 (blade 1, node 1), m
          7    1.672E+01                                 F               0         IfW X-component position of node 3 (blade 1, node 2), m
          8   -9.712E+00                                 F               0         IfW Y-component position of node 3 (blade 1, node 2), m
          9    1.557E+02                                 F               0         IfW Z-component position of node 3 (blade 1, node 2), m
         10    2.037E+01                                 F               0         IfW X-component position of node 4 (blade 1, node 3), m
         11   -1.771E+01                                 F               0         IfW Y-component position of node 4 (blade 1, node 3), m
         12    1.716E+02                                 F               0         IfW Z-component position of node 4 (blade 1, node 3), m
         13    2.115E+01                                 F               0         IfW X-component position of node 5 (blade 1, node 4), m
         14   -1.942E+01                                 F               0         IfW Y-component position of node 5 (blade 1, node 4), m
         15    1.750E+02                                 F               0         IfW Z-component position of node 5 (blade 1, node 4), m
         16    2.193E+01                                 F               0         IfW X-component position of node 6 (blade 1, node 5), m
         17   -2.112E+01                                 F               0         IfW Y-component position of node 6 (blade 1, node 5), m
         18    1.783E+02                                 F               0         IfW Z-component position of node 6 (blade 1, node 5), m
         19    2.271E+01                                 F               0         IfW X-component position of node 7 (blade 1, node 6), m
         20   -2.282E+01                                 F               0         IfW Y-component position of node 7 (blade 1, node 6), m
         21    1.817E+02                                 F               0         IfW Z-component position of node 7 (blade 1, node 6), m
         22    2.349E+01                                 F               0         IfW X-component position of node 8 (blade 1, node 7), m
         23   -2.453E+01                                 F               0         IfW Y-component position of node 8 (blade 1, node 7), m
         24    1.851E+02                                 F               0         IfW Z-component position of node 8 (blade 1, node 7), m
         25    2.427E+01                                 F               0         IfW X-component position of node 9 (blade 1, node 8), m
         26   -2.623E+01                                 F               0         IfW Y-component position of node 9 (blade 1, node 8), m
         27    1.885E+02                                 F               0         IfW Z-component position of node 9 (blade 1, node 8), m
         28    2.504E+01                                 F               0         IfW X-component position of node 10 (blade 1, node 9), m
         29   -2.794E+01                                 F               0         IfW Y-component position of node 10 (blade 1, node 9), m
         30    1.919E+02                                 F               0         IfW Z-component position of node 10 (blade 1, node 9), m
         31    2.582E+01                                 F               0         IfW X-component position of node 11 (blade 1, node 10), m
         32   -2.964E+01                                 F               0         IfW Y-component position of node 11 (blade 1, node 10), m
         33    1.953E+02                                 F               0         IfW Z-component position of node 11 (blade 1, node 10), m
         34    2.660E+01                                 F               0         IfW X-component position of node 12 (blade 1, node 11), m
         35   -3.135E+01                                 F               0         IfW Y-component position of node 12 (blade 1, node 11), m
         36    1.986E+02                                 F               0         IfW Z-component position of node 12 (blade 1, node 11), m
         37    2.738E+01                                 F               0         IfW X-component position of node 13 (blade 1, node 12), m
         38   -3.305E+01                                 F               0         IfW Y-component position of node 13 (blade 1, node 12), m
         39    2.020E+02                                 F               0         IfW Z-component position of node 13 (blade 1, node 12), m
         40    2.816E+01                                 F               0         IfW X-component position of node 14 (blade 1, node 13), m
         41   -3.475E+01                                 F               0         IfW Y-component position of node 14 (blade 1, node 13), m
         42    2.054E+02                                 F               0         IfW Z-component position of node 14 (blade 1, node 13), m
         43    2.894E+01                                 F               0         IfW X-component position of node 15 (blade 1, node 14), m
         44   -3.646E+01                                 F               0         IfW Y-component position of node 15 (blade 1, node 14), m
         45    2.088E+02                                 F               0         IfW Z-component position of node 15 (blade 1, node 14), m
         46    2.972E+01                                 F               0         IfW X-component position of node 16 (blade 1, node 15), m
         47   -3.816E+01                                 F               0         IfW Y-component position of node 16 (blade 1, node 15), m
         48    2.122E+02                                 F               0         IfW Z-component position of node 16 (blade 1, node 15), m
         49    3.050E+01                                 F               0         IfW X-component position of node 17 (blade 1, node 16), m
         50   -3.987E+01                                 F               0         IfW Y-component position of node 17 (blade 1, node 16), m
         51    2.156E+02                                 F               0         IfW Z-component position of node 17 (blade 1, node 16), m
         52    3.128E+01                                 F               0         IfW X-component position of node 18 (blade 1, node 17), m
         53   -4.157E+01                                 F               0         IfW Y-component position of node 18 (blade 1, node 17), m
         54    2.189E+02                                 F               0         IfW Z-component position of node 18 (blade 1, node 17), m
         55    3.206E+01                                 F               0         IfW X-component position of node 19 (blade 1, node 18), m
         56   -4.328E+01                                 F               0         IfW Y-component position of node 19 (blade 1, node 18), m
         57    2.223E+02                                 F               0         IfW Z-component position of node 19 (blade 1, node 18), m
         58    3.283E+01                                 F               0         IfW X-component position of node 20 (blade 1, node 19), m
         59   -4.498E+01                                 F               0         IfW Y-component position of node 20 (blade 1, node 19), m
         60    2.257E+02                                 F               0         IfW Z-component position of node 20 (blade 1, node 19), m
         61    3.361E+01                                 F               0         IfW X-component position of node 21 (blade 1, node 20), m
         62   -4.669E+01                                 F               0         IfW Y-component position of node 21 (blade 1, node 20), m
         63    2.291E+02                                 F               0         IfW Z-component position of node 21 (blade 1, node 20), m
         64    3.439E+01                                 F               0         IfW X-component position of node 22 (blade 1, node 21), m
         65   -4.839E+01                                 F               0         IfW Y-component position of node 22 (blade 1, node 21), m
         66    2.325E+02                                 F               0         IfW Z-component position of node 22 (blade 1, node 21), m
         67    3.517E+01                                 F               0         IfW X-component position of node 23 (blade 1, node 22), m
         68   -5.009E+01                                 F               0         IfW Y-component position of node 23 (blade 1, node 22), m
         69    2.359E+02                                 F               0         IfW Z-component position of node 23 (blade 1, node 22), m
         70    3.595E+01                                 F               0         IfW X-component position of node 24 (blade 1, node 23), m
         71   -5.180E+01                                 F               0         IfW Y-component position of node 24 (blade 1, node 23), m
         72    2.392E+02                                 F               0         IfW Z-component position of node 24 (blade 1, node 23), m
         73    3.673E+01                                 F               0         IfW X-component position of node 25 (blade 1, node 24), m
         74   -5.350E+01                                 F               0         IfW Y-component position of node 25 (blade 1, node 24), m
         75    2.426E+02                                 F               0         IfW Z-component position of node 25 (blade 1, node 24), m
         76    3.751E+01                                 F               0         IfW X-component position of node 26 (blade 1, node 25), m
         77   -5.521E+01                                 F               0         IfW Y-component position of node 26 (blade 1, node 25), m
         78    2.460E+02                                 F               0         IfW Z-component position of node 26 (blade 1, node 25), m
         79    3.829E+01                                 F               0         IfW X-component position of node 27 (blade 1, node 26), m
         80   -5.691E+01                                 F               0         IfW Y-component position of node 27 (blade 1, node 26), m
         81    2.494E+02                                 F               0         IfW Z-component position of node 27 (blade 1, node 26), m
         82    3.907E+01                                 F               0         IfW X-component position of node 28 (blade 1, node 27), m
         83   -5.862E+01                                 F               0         IfW Y-component position of node 28 (blade 1, node 27), m
         84    2.528E+02                                 F               0         IfW Z-component position of node 28 (blade 1, node 27), m
         85    3.973E+01                                 F               0         IfW X-component position of node 29 (blade 1, node 28), m
         86   -6.006E+01                                 F               0         IfW Y-component position of node 29 (blade 1, node 28), m
         87    2.556E+02                                 F               0         IfW Z-component position of node 29 (blade 1, node 28), m
         88    1.437E+01                                 F               0         IfW X-component position of node 30 (blade 2, node 1), m
         89   -9.769E+00                                 F               0         IfW Y-component position of node 30 (blade 2, node 1), m
         90    1.452E+02                                 F               0         IfW Z-component position of node 30 (blade 2, node 1), m
         91    1.414E+01                                 F               0         IfW X-component position of node 31 (blade 2, node 2), m
         92   -1.051E+01                                 F               0         IfW Y-component position of node 31 (blade 2, node 2), m
         93    1.441E+02                                 F               0         IfW Z-component position of node 31 (blade 2, node 2), m
         94    1.100E+01                                 F               0         IfW X-component position of node 32 (blade 2, node 3), m
         95   -2.062E+01                                 F               0         IfW Y-component position of node 32 (blade 2, node 3), m
         96    1.294E+02                                 F               0         IfW Z-component position of node 32 (blade 2, node 3), m
         97    1.033E+01                                 F               0         IfW X-component position of node 33 (blade 2, node 4), m
         98   -2.278E+01                                 F               0         IfW Y-component position of node 33 (blade 2, node 4), m
         99    1.262E+02                                 F               0         IfW Z-component position of node 33 (blade 2, node 4), m
        100    9.665E+00                                 F               0         IfW X-component position of node 34 (blade 2, node 5), m
        101   -2.493E+01                                 F               0         IfW Y-component position of node 34 (blade 2, node 5), m
        102    1.231E+02                                 F               0         IfW Z-component position of node 34 (blade 2, node 5), m
        103    8.996E+00                                 F               0         IfW X-component position of node 35 (blade 2, node 6), m
        104   -2.709E+01                                 F               0         IfW Y-component position of node 35 (blade 2, node 6), m
        105    1.199E+02                                 F               0         IfW Z-component position of node 35 (blade 2, node 6), m
        106    8.327E+00                                 F               0         IfW X-component position of node 36 (blade 2, node 7), m
        107   -2.924E+01                                 F               0         IfW Y-component position of node 36 (blade 2, node 7), m
        108    1.168E+02                                 F               0         IfW Z-component position of node 36 (blade 2, node 7), m
        109    7.658E+00                                 F               0         IfW X-component position of node 37 (blade 2, node 8), m
        110   -3.139E+01                                 F               0         IfW Y-component position of node 37 (blade 2, node 8), m
        111    1.136E+02                                 F               0         IfW Z-component position of node 37 (blade 2, node 8), m
        112    6.989E+00                                 F               0         IfW X-component position of node 38 (blade 2, node 9), m
        113   -3.355E+01                                 F               0         IfW Y-component position of node 38 (blade 2, node 9), m
        114    1.105E+02                                 F               0         IfW Z-component position of node 38 (blade 2, node 9), m
        115    6.320E+00                                 F               0         IfW X-component position of node 39 (blade 2, node 10), m
        116   -3.570E+01                                 F               0         IfW Y-component position of node 39 (blade 2, node 10), m
        117    1.074E+02                                 F               0         IfW Z-component position of node 39 (blade 2, node 10), m
        118    5.651E+00                                 F               0         IfW X-component position of node 40 (blade 2, node 11), m
        119   -3.786E+01                                 F               0         IfW Y-component position of node 40 (blade 2, node 11), m
        120    1.042E+02                                 F               0         IfW Z-component position of node 40 (blade 2, node 11), m
        121    4.982E+00                                 F               0         IfW X-component position of node 41 (blade 2, node 12), m
        122   -4.001E+01                                 F               0         IfW Y-component position of node 41 (blade 2, node 12), m
        123    1.011E+02                                 F               0         IfW Z-component position of node 41 (blade 2, node 12), m
        124    4.314E+00                                 F               0         IfW X-component position of node 42 (blade 2, node 13), m
        125   -4.217E+01                                 F               0         IfW Y-component position of node 42 (blade 2, node 13), m
        126    9.794E+01                                 F               0         IfW Z-component position of node 42 (blade 2, node 13), m
        127    3.645E+00                                 F               0         IfW X-component position of node 43 (blade 2, node 14), m
        128   -4.432E+01                                 F               0         IfW Y-component position of node 43 (blade 2, node 14), m
        129    9.479E+01                                 F               0         IfW Z-component position of node 43 (blade 2, node 14), m
        130    2.976E+00                                 F               0         IfW X-component position of node 44 (blade 2, node 15), m
        131   -4.647E+01                                 F               0         IfW Y-component position of node 44 (blade 2, node 15), m
        132    9.165E+01                                 F               0         IfW Z-component position of node 44 (blade 2, node 15), m
        133    2.307E+00                                 F               0         IfW X-component position of node 45 (blade 2, node 16), m
        134   -4.863E+01                                 F               0         IfW Y-component position of node 45 (blade 2, node 16), m
        135    8.851E+01                                 F               0         IfW Z-component position of node 45 (blade 2, node 16), m
        136    1.638E+00                                 F               0         IfW X-component position of node 46 (blade 2, node 17), m
        137   -5.078E+01                                 F               0         IfW Y-component position of node 46 (blade 2, node 17), m
        138    8.537E+01                                 F               0         IfW Z-component position of node 46 (blade 2, node 17), m
        139    9.691E-01                                 F               0         IfW X-component position of node 47 (blade 2, node 18), m
        140   -5.294E+01                                 F               0         IfW Y-component position of node 47 (blade 2, node 18), m
        141    8.223E+01                                 F               0         IfW Z-component position of node 47 (blade 2, node 18), m
        142    3.002E-01                                 F               0         IfW X-component position of node 48 (blade 2, node 19), m
        143   -5.509E+01                                 F               0         IfW Y-component position of node 48 (blade 2, node 19), m
        144    7.909E+01                                 F               0         IfW Z-component position of node 48 (blade 2, node 19), m
        145   -3.687E-01                                 F               0         IfW X-component position of node 49 (blade 2, node 20), m
        146   -5.724E+01                                 F               0         IfW Y-component position of node 49 (blade 2, node 20), m
        147    7.594E+01                                 F               0         IfW Z-component position of node 49 (blade 2, node 20), m
        148   -1.038E+00                                 F               0         IfW X-component position of node 50 (blade 2, node 21), m
        149   -5.940E+01                                 F               0         IfW Y-component position of node 50 (blade 2, node 21), m
        150    7.280E+01                                 F               0         IfW Z-component position of node 50 (blade 2, node 21), m
        151   -1.707E+00                                 F               0         IfW X-component position of node 51 (blade 2, node 22), m
        152   -6.155E+01                                 F               0         IfW Y-component position of node 51 (blade 2, node 22), m
        153    6.966E+01                                 F               0         IfW Z-component position of node 51 (blade 2, node 22), m
        154   -2.375E+00                                 F               0         IfW X-component position of node 52 (blade 2, node 23), m
        155   -6.371E+01                                 F               0         IfW Y-component position of node 52 (blade 2, node 23), m
        156    6.652E+01                                 F               0         IfW Z-component position of node 52 (blade 2, node 23), m
        157   -3.044E+00                                 F               0         IfW X-component position of node 53 (blade 2, node 24), m
        158   -6.586E+01                                 F               0         IfW Y-component position of node 53 (blade 2, node 24), m
        159    6.338E+01                                 F               0         IfW Z-component position of node 53 (blade 2, node 24), m
        160   -3.713E+00                                 F               0         IfW X-component position of node 54 (blade 2, node 25), m
        161   -6.802E+01                                 F               0         IfW Y-component position of node 54 (blade 2, node 25), m
        162    6.023E+01                                 F               0         IfW Z-component position of node 54 (blade 2, node 25), m
        163   -4.382E+00                                 F               0         IfW X-component position of node 55 (blade 2, node 26), m
        164   -7.017E+01                                 F               0         IfW Y-component position of node 55 (blade 2, node 26), m
        165    5.709E+01                                 F               0         IfW Z-component position of node 55 (blade 2, node 26), m