
Linearized model: Predictions were generated on 30-Jan-2024 at 18:20:32 using OpenFAST, compiled as a 64-bit application using single precision at commit v3.5.1
 linked with  NWTC Subroutine Library; ElastoDyn; InflowWind; AeroDyn; ServoDyn; HydroDyn; MAP++ (<1.20.10>, <Oct-20-2023>)

Description from the FAST input file: CCT-9 Campign 4 model. Input files to be run with OpenFAST 3.5.0. GitHub branch from Lu Wang (https://github.com/luwang00/openfast/tree/dev) compiled on March 7, 2023.

Simulation information:
   Simulation time:                   506.4250 s
   Rotor Speed:                         0.8795 rad/s
   Azimuth:                             4.5274 rad
   Wind Speed:                         10.0000 m/s
   Number of continuous states:        14
   Number of discrete states:           0
   Number of constraint states:         0
   Number of inputs:                 3988
   Number of outputs:                  36
   Jacobians included in this file?    No

Order of continuous states:
   Row/Column Operating Point                     Rotating Frame? Derivative Order Description
   ---------- ---------------                     --------------- ---------------- -----------
          1    8.863E+00                                 F               2         ED Platform horizontal surge translation DOF (internal DOF index = DOF_Sg), m
          2   -3.545E-01                                 F               2         ED Platform horizontal sway translation DOF (internal DOF index = DOF_Sw), m
          3   -1.571E-01                                 F               2         ED Platform vertical heave translation DOF (internal DOF index = DOF_Hv), m
          4    4.279E-02                                 F               2         ED Platform roll tilt rotation DOF (internal DOF index = DOF_R), rad
          5    1.156E-01                                 F               2         ED Platform pitch tilt rotation DOF (internal DOF index = DOF_P), rad
          6    7.353E-03                                 F               2         ED Platform yaw rotation DOF (internal DOF index = DOF_Y), rad
          7    2.957E+00                                 F               2         ED Variable speed generator DOF (internal DOF index = DOF_GeAz), rad
          8   -4.539E-03                                 F               2         ED First time derivative of Platform horizontal surge translation DOF (internal DOF index = DOF_Sg), m/s
          9   -1.987E-04                                 F               2         ED First time derivative of Platform horizontal sway translation DOF (internal DOF index = DOF_Sw), m/s
         10    4.422E-03                                 F               2         ED First time derivative of Platform vertical heave translation DOF (internal DOF index = DOF_Hv), m/s
         11    3.175E-04                                 F               2         ED First time derivative of Platform roll tilt rotation DOF (internal DOF index = DOF_R), rad/s
         12    1.807E-05                                 F               2         ED First time derivative of Platform pitch tilt rotation DOF (internal DOF index = DOF_P), rad/s
         13   -7.388E-05                                 F               2         ED First time derivative of Platform yaw rotation DOF (internal DOF index = DOF_Y), rad/s
         14    8.795E-01                                 F               2         ED First time derivative of Variable speed generator DOF (internal DOF index = DOF_GeAz), rad/s

Order of continuous state derivatives:
   Row/Column Operating Point                     Rotating Frame? Derivative Order Description
   ---------- ---------------                     --------------- ---------------- -----------
          1   -4.539E-03                                 F               2         First time derivative of ED Platform horizontal surge translation DOF (internal DOF index = DOF_Sg), m/s
          2   -1.987E-04                                 F               2         First time derivative of ED Platform horizontal sway translation DOF (internal DOF index = DOF_Sw), m/s
          3    4.422E-03                                 F               2         First time derivative of ED Platform vertical heave translation DOF (internal DOF index = DOF_Hv), m/s
          4    3.175E-04                                 F               2         First time derivative of ED Platform roll tilt rotation DOF (internal DOF index = DOF_R), rad/s
          5    1.807E-05                                 F               2         First time derivative of ED Platform pitch tilt rotation DOF (internal DOF index = DOF_P), rad/s
          6   -7.388E-05                                 F               2         First time derivative of ED Platform yaw rotation DOF (internal DOF index = DOF_Y), rad/s
          7    8.795E-01                                 F               2         First time derivative of ED Variable speed generator DOF (internal DOF index = DOF_GeAz), rad/s
          8   -2.978E-04                                 F               2         First time derivative of ED First time derivative of Platform horizontal surge translation DOF (internal DOF index = DOF_Sg), m/s/s
          9   -2.388E-04                                 F               2         First time derivative of ED First time derivative of Platform horizontal sway translation DOF (internal DOF index = DOF_Sw), m/s/s
         10   -3.471E-04                                 F               2         First time derivative of ED First time derivative of Platform vertical heave translation DOF (internal DOF index = DOF_Hv), m/s/s
         11    5.095E-05                                 F               2         First time derivative of ED First time derivative of Platform roll tilt rotation DOF (internal DOF index = DOF_R), rad/s/s
         12   -8.947E-06                                 F               2         First time derivative of ED First time derivative of Platform pitch tilt rotation DOF (internal DOF index = DOF_P), rad/s/s
         13   -6.176E-06                                 F               2         First time derivative of ED First time derivative of Platform yaw rotation DOF (internal DOF index = DOF_Y), rad/s/s
         14   -8.842E-05                                 F               2         First time derivative of ED First time derivative of Variable speed generator DOF (internal DOF index = DOF_GeAz), rad/s/s

Order of inputs:
     Column   Operating Point                     Rotating Frame? Derivative Order Description
   ---------- ---------------                     --------------- ---------------- -----------
          1   -1.080E+01                                 F               0         IfW X-component position of node 1 (hub), m
          2    0.000E+00                                 F               0         IfW Y-component position of node 1 (hub), m
          3    1.497E+02                                 F               0         IfW Z-component position of node 1 (hub), m
          4    1.508E+01                                 F               0         IfW X-component position of node 2 (blade 1, node 1), m
          5   -1.273E+00                                 F               0         IfW Y-component position of node 2 (blade 1, node 1), m
          6    1.489E+02                                 F               0         IfW Z-component position of node 2 (blade 1, node 1), m
          7    1.502E+01                                 F               0         IfW X-component position of node 3 (blade 1, node 2), m
          8    4.773E-02                                 F               0         IfW Y-component position of node 3 (blade 1, node 2), m
          9    1.488E+02                                 F               0         IfW Z-component position of node 3 (blade 1, node 2), m
         10    1.421E+01                                 F               0         IfW X-component position of node 4 (blade 1, node 3), m
         11    1.801E+01                                 F               0         IfW Y-component position of node 4 (blade 1, node 3), m
         12    1.463E+02                                 F               0         IfW Z-component position of node 4 (blade 1, node 3), m
         13    1.403E+01                                 F               0         IfW X-component position of node 5 (blade 1, node 4), m
         14    2.184E+01                                 F               0         IfW Y-component position of node 5 (blade 1, node 4), m
         15    1.457E+02                                 F               0         IfW Z-component position of node 5 (blade 1, node 4), m
         16    1.386E+01                                 F               0         IfW X-component position of node 6 (blade 1, node 5), m
         17    2.566E+01                                 F               0         IfW Y-component position of node 6 (blade 1, node 5), m
         18    1.452E+02                                 F               0         IfW Z-component position of node 6 (blade 1, node 5), m
         19    1.369E+01                                 F               0         IfW X-component position of node 7 (blade 1, node 6), m
         20    2.949E+01                                 F               0         IfW Y-component position of node 7 (blade 1, node 6), m
         21    1.447E+02                                 F               0         IfW Z-component position of node 7 (blade 1, node 6), m
         22    1.351E+01                                 F               0         IfW X-component position of node 8 (blade 1, node 7), m
         23    3.332E+01                                 F               0         IfW Y-component position of node 8 (blade 1, node 7), m
         24    1.441E+02                                 F               0         IfW Z-component position of node 8 (blade 1, node 7), m
         25    1.334E+01                                 F               0         IfW X-component position of node 9 (blade 1, node 8), m
         26    3.715E+01                                 F               0         IfW Y-component position of node 9 (blade 1, node 8), m
         27    1.436E+02                                 F               0         IfW Z-component position of node 9 (blade 1, node 8), m
         28    1.317E+01                                 F               0         IfW X-component position of node 10 (blade 1, node 9), m
         29    4.097E+01                                 F               0         IfW Y-component position of node 10 (blade 1, node 9), m
         30    1.431E+02                                 F               0         IfW Z-component position of node 10 (blade 1, node 9), m
         31    1.299E+01                                 F               0         IfW X-component position of node 11 (blade 1, node 10), m
         32    4.480E+01                                 F               0         IfW Y-component position of node 11 (blade 1, node 10), m
         33    1.425E+02                                 F               0         IfW Z-component position of node 11 (blade 1, node 10), m
         34    1.282E+01                                 F               0         IfW X-component position of node 12 (blade 1, node 11), m
         35    4.863E+01                                 F               0         IfW Y-component position of node 12 (blade 1, node 11), m
         36    1.420E+02                                 F               0         IfW Z-component position of node 12 (blade 1, node 11), m
         37    1.265E+01                                 F               0         IfW X-component position of node 13 (blade 1, node 12), m
         38    5.246E+01                                 F               0         IfW Y-component position of node 13 (blade 1, node 12), m
         39    1.415E+02                                 F               0         IfW Z-component position of node 13 (blade 1, node 12), m
         40    1.247E+01                                 F               0         IfW X-component position of node 14 (blade 1, node 13), m
         41    5.628E+01                                 F               0         IfW Y-component position of node 14 (blade 1, node 13), m
         42    1.410E+02                                 F               0         IfW Z-component position of node 14 (blade 1, node 13), m
         43    1.230E+01                                 F               0         IfW X-component position of node 15 (blade 1, node 14), m
         44    6.011E+01                                 F               0         IfW Y-component position of node 15 (blade 1, node 14), m
         45    1.404E+02                                 F               0         IfW Z-component position of node 15 (blade 1, node 14), m
         46    1.212E+01                                 F               0         IfW X-component position of node 16 (blade 1, node 15), m
         47    6.394E+01                                 F               0         IfW Y-component position of node 16 (blade 1, node 15), m
         48    1.399E+02                                 F               0         IfW Z-component position of node 16 (blade 1, node 15), m
         49    1.195E+01                                 F               0         IfW X-component position of node 17 (blade 1, node 16), m
         50    6.776E+01                                 F               0         IfW Y-component position of node 17 (blade 1, node 16), m
         51    1.394E+02                                 F               0         IfW Z-component position of node 17 (blade 1, node 16), m
         52    1.178E+01                                 F               0         IfW X-component position of node 18 (blade 1, node 17), m
         53    7.159E+01                                 F               0         IfW Y-component position of node 18 (blade 1, node 17), m
         54    1.388E+02                                 F               0         IfW Z-component position of node 18 (blade 1, node 17), m
         55    1.160E+01                                 F               0         IfW X-component position of node 19 (blade 1, node 18), m
         56    7.542E+01                                 F               0         IfW Y-component position of node 19 (blade 1, node 18), m
         57    1.383E+02                                 F               0         IfW Z-component position of node 19 (blade 1, node 18), m
         58    1.143E+01                                 F               0         IfW X-component position of node 20 (blade 1, node 19), m
         59    7.925E+01                                 F               0         IfW Y-component position of node 20 (blade 1, node 19), m
         60    1.378E+02                                 F               0         IfW Z-component position of node 20 (blade 1, node 19), m
         61    1.126E+01                                 F               0         IfW X-component position of node 21 (blade 1, node 20), m
         62    8.307E+01                                 F               0         IfW Y-component position of node 21 (blade 1, node 20), m
         63    1.372E+02                                 F               0         IfW Z-component position of node 21 (blade 1, node 20), m
         64    1.108E+01                                 F               0         IfW X-component position of node 22 (blade 1, node 21), m
         65    8.690E+01                                 F               0         IfW Y-component position of node 22 (blade 1, node 21), m
         66    1.367E+02                                 F               0         IfW Z-component position of node 22 (blade 1, node 21), m
         67    1.091E+01                                 F               0         IfW X-component position of node 23 (blade 1, node 22), m
         68    9.073E+01                                 F               0         IfW Y-component position of node 23 (blade 1, node 22), m
         69    1.362E+02                                 F               0         IfW Z-component position of node 23 (blade 1, node 22), m
         70    1.074E+01                                 F               0         IfW X-component position of node 24 (blade 1, node 23), m
         71    9.455E+01                                 F               0         IfW Y-component position of node 24 (blade 1, node 23), m
         72    1.357E+02                                 F               0         IfW Z-component position of node 24 (blade 1, node 23), m
         73    1.056E+01                                 F               0         IfW X-component position of node 25 (blade 1, node 24), m
         74    9.838E+01                                 F               0         IfW Y-component position of node 25 (blade 1, node 24), m
         75    1.351E+02                                 F               0         IfW Z-component position of node 25 (blade 1, node 24), m
         76    1.039E+01                                 F               0         IfW X-component position of node 26 (blade 1, node 25), m
         77    1.022E+02                                 F               0         IfW Y-component position of node 26 (blade 1, node 25), m
         78    1.346E+02                                 F               0         IfW Z-component position of node 26 (blade 1, node 25), m
         79    1.022E+01                                 F               0         IfW X-component position of node 27 (blade 1, node 26), m
         80    1.060E+02                                 F               0         IfW Y-component position of node 27 (blade 1, node 26), m
         81    1.341E+02                                 F               0         IfW Z-component position of node 27 (blade 1, node 26), m
         82    1.004E+01                                 F               0         IfW X-component position of node 28 (blade 1, node 27), m
         83    1.099E+02                                 F               0         IfW Y-component position of node 28 (blade 1, node 27), m
         84    1.335E+02                                 F               0         IfW Z-component position of node 28 (blade 1, node 27), m
         85    9.895E+00                                 F               0         IfW X-component position of node 29 (blade 1, node 28), m
         86    1.131E+02                                 F               0         IfW Y-component position of node 29 (blade 1, node 28), m
         87    1.331E+02                                 F               0         IfW Z-component position of node 29 (blade 1, node 28), m
         88    1.648E+01                                 F               0         IfW X-component position of node 30 (blade 2, node 1), m
         89   -8.807E+00                                 F               0         IfW Y-component position of node 30 (blade 2, node 1), m
         90    1.547E+02                                 F               0         IfW Z-component position of node 30 (blade 2, node 1), m
         91    1.676E+01                                 F               0         IfW X-component position of node 31 (blade 2, node 2), m
         92   -9.302E+00                                 F               0         IfW Y-component position of node 31 (blade 2, node 2), m
         93    1.559E+02                                 F               0         IfW Z-component position of node 31 (blade 2, node 2), m
         94    2.052E+01                                 F               0         IfW X-component position of node 32 (blade 2, node 3), m
         95   -1.602E+01                                 F               0         IfW Y-component position of node 32 (blade 2, node 3), m
         96    1.724E+02                                 F               0         IfW Z-component position of node 32 (blade 2, node 3), m
         97    2.132E+01                                 F               0         IfW X-component position of node 33 (blade 2, node 4), m
         98   -1.746E+01                                 F               0         IfW Y-component position of node 33 (blade 2, node 4), m
         99    1.759E+02                                 F               0         IfW Z-component position of node 33 (blade 2, node 4), m
        100    2.212E+01                                 F               0         IfW X-component position of node 34 (blade 2, node 5), m
        101   -1.889E+01                                 F               0         IfW Y-component position of node 34 (blade 2, node 5), m
        102    1.794E+02                                 F               0         IfW Z-component position of node 34 (blade 2, node 5), m
        103    2.292E+01                                 F               0         IfW X-component position of node 35 (blade 2, node 6), m
        104   -2.032E+01                                 F               0         IfW Y-component position of node 35 (blade 2, node 6), m
        105    1.829E+02                                 F               0         IfW Z-component position of node 35 (blade 2, node 6), m
        106    2.372E+01                                 F               0         IfW X-component position of node 36 (blade 2, node 7), m
        107   -2.175E+01                                 F               0         IfW Y-component position of node 36 (blade 2, node 7), m
        108    1.864E+02                                 F               0         IfW Z-component position of node 36 (blade 2, node 7), m
        109    2.453E+01                                 F               0         IfW X-component position of node 37 (blade 2, node 8), m
        110   -2.319E+01                                 F               0         IfW Y-component position of node 37 (blade 2, node 8), m
        111    1.899E+02                                 F               0         IfW Z-component position of node 37 (blade 2, node 8), m
        112    2.533E+01                                 F               0         IfW X-component position of node 38 (blade 2, node 9), m
        113   -2.462E+01                                 F               0         IfW Y-component position of node 38 (blade 2, node 9), m
        114    1.934E+02                                 F               0         IfW Z-component position of node 38 (blade 2, node 9), m
        115    2.613E+01                                 F               0         IfW X-component position of node 39 (blade 2, node 10), m
        116   -2.605E+01                                 F               0         IfW Y-component position of node 39 (blade 2, node 10), m
        117    1.969E+02                                 F               0         IfW Z-component position of node 39 (blade 2, node 10), m
        118    2.693E+01                                 F               0         IfW X-component position of node 40 (blade 2, node 11), m
        119   -2.748E+01                                 F               0         IfW Y-component position of node 40 (blade 2, node 11), m
        120    2.004E+02                                 F               0         IfW Z-component position of node 40 (blade 2, node 11), m
        121    2.773E+01                                 F               0         IfW X-component position of node 41 (blade 2, node 12), m
        122   -2.892E+01                                 F               0         IfW Y-component position of node 41 (blade 2, node 12), m
        123    2.039E+02                                 F               0         IfW Z-component position of node 41 (blade 2, node 12), m
        124    2.853E+01                                 F               0         IfW X-component position of node 42 (blade 2, node 13), m
        125   -3.035E+01                                 F               0         IfW Y-component position of node 42 (blade 2, node 13), m
        126    2.074E+02                                 F               0         IfW Z-component position of node 42 (blade 2, node 13), m
        127    2.934E+01                                 F               0         IfW X-component position of node 43 (blade 2, node 14), m
        128   -3.178E+01                                 F               0         IfW Y-component position of node 43 (blade 2, node 14), m
        129    2.109E+02                                 F               0         IfW Z-component position of node 43 (blade 2, node 14), m
        130    3.014E+01                                 F               0         IfW X-component position of node 44 (blade 2, node 15), m
        131   -3.322E+01                                 F               0         IfW Y-component position of node 44 (blade 2, node 15), m
        132    2.144E+02                                 F               0         IfW Z-component position of node 44 (blade 2, node 15), m
        133    3.094E+01                                 F               0         IfW X-component position of node 45 (blade 2, node 16), m
        134   -3.465E+01                                 F               0         IfW Y-component position of node 45 (blade 2, node 16), m
        135    2.179E+02                                 F               0         IfW Z-component position of node 45 (blade 2, node 16), m
        136    3.174E+01                                 F               0         IfW X-component position of node 46 (blade 2, node 17), m
        137   -3.608E+01                                 F               0         IfW Y-component position of node 46 (blade 2, node 17), m
        138    2.214E+02                                 F               0         IfW Z-component position of node 46 (blade 2, node 17), m
        139    3.254E+01                                 F               0         IfW X-component position of node 47 (blade 2, node 18), m
        140   -3.751E+01                                 F               0         IfW Y-component position of node 47 (blade 2, node 18), m
        141    2.249E+02                                 F               0         IfW Z-component position of node 47 (blade 2, node 18), m
        142    3.334E+01                                 F               0         IfW X-component position of node 48 (blade 2, node 19), m
        143   -3.895E+01                                 F               0         IfW Y-component position of node 48 (blade 2, node 19), m
        144    2.284E+02                                 F               0         IfW Z-component position of node 48 (blade 2, node 19), m
        145    3.415E+01                                 F               0         IfW X-component position of node 49 (blade 2, node 20), m
        146   -4.038E+01                                 F               0         IfW Y-component position of node 49 (blade 2, node 20), m
        147    2.319E+02                                 F               0         IfW Z-component position of node 49 (blade 2, node 20), m
        148    3.495E+01                                 F               0         IfW X-component position of node 50 (blade 2, node 21), m
        149   -4.181E+01                                 F               0         IfW Y-component position of node 50 (blade 2, node 21), m
        150    2.354E+02                                 F               0         IfW Z-component position of node 50 (blade 2, node 21), m
        151    3.575E+01                                 F               0         IfW X-component position of node 51 (blade 2, node 22), m
        152   -4.324E+01                                 F               0         IfW Y-component position of node 51 (blade 2, node 22), m
        153    2.389E+02                                 F               0         IfW Z-component position of node 51 (blade 2, node 22), m
        154    3.655E+01                                 F               0         IfW X-component position of node 52 (blade 2, node 23), m
        155   -4.468E+01                                 F               0         IfW Y-component position of node 52 (blade 2, node 23), m
        156    2.424E+02                                 F               0         IfW Z-component position of node 52 (blade 2, node 23), m
        157    3.735E+01                                 F               0         IfW X-component position of node 53 (blade 2, node 24), m
        158   -4.611E+01                                 F               0         IfW Y-component position of node 53 (blade 2, node 24), m
        159    2.459E+02                                 F               0         IfW Z-component position of node 53 (blade 2, node 24), m
        160    3.815E+01                                 F               0         IfW X-component position of node 54 (blade 2, node 25), m
        161   -4.754E+01                                 F               0         IfW Y-component position of node 54 (blade 2, node 25), m
        162    2.494E+02                                 F               0         IfW Z-component position of node 54 (blade 2, node 25), m
        163    3.896E+01                                 F               0         IfW X-component position of node 55 (blade 2, node 26), m
        164   -4.897E+01                                 F               0         IfW Y-component position of node 55 (blade 2, node 26), m
        165    2.529E+02                                 F               0         IfW Z-component position of node 55 (blade 2, node 26), m