
Linearized model: Predictions were generated on 12-Feb-2024 at 18:31:58 using OpenFAST, compiled as a 64-bit application using single precision at commit v3.5.1
 linked with  NWTC Subroutine Library; ElastoDyn; InflowWind; AeroDyn; ServoDyn; HydroDyn; MAP++ (<1.20.10>, <Oct-20-2023>)

Description from the FAST input file: CCT-9 Campign 4 model. Input files to be run with OpenFAST 3.5.0. GitHub branch from Lu Wang (https://github.com/luwang00/openfast/tree/dev) compiled on March 7, 2023.

Simulation information:
   Simulation time:                  1003.5000 s
   Rotor Speed:                         1.0467 rad/s
   Azimuth:                             3.3289 rad
   Wind Speed:                         12.0000 m/s
   Number of continuous states:        14
   Number of discrete states:           0
   Number of constraint states:         0
   Number of inputs:                 3988
   Number of outputs:                  42
   Jacobians included in this file?    No

Order of continuous states:
   Row/Column Operating Point                     Rotating Frame? Derivative Order Description
   ---------- ---------------                     --------------- ---------------- -----------
          1    1.242E+01                                 F               2         ED Platform horizontal surge translation DOF (internal DOF index = DOF_Sg), m
          2   -2.298E-01                                 F               2         ED Platform horizontal sway translation DOF (internal DOF index = DOF_Sw), m
          3   -2.484E-01                                 F               2         ED Platform vertical heave translation DOF (internal DOF index = DOF_Hv), m
          4    4.669E-02                                 F               2         ED Platform roll tilt rotation DOF (internal DOF index = DOF_R), rad
          5    1.524E-01                                 F               2         ED Platform pitch tilt rotation DOF (internal DOF index = DOF_P), rad
          6    1.141E-02                                 F               2         ED Platform yaw rotation DOF (internal DOF index = DOF_Y), rad
          7    1.758E+00                                 F               2         ED Variable speed generator DOF (internal DOF index = DOF_GeAz), rad
          8    1.178E-04                                 F               2         ED First time derivative of Platform horizontal surge translation DOF (internal DOF index = DOF_Sg), m/s
          9   -1.470E-04                                 F               2         ED First time derivative of Platform horizontal sway translation DOF (internal DOF index = DOF_Sw), m/s
         10    2.227E-03                                 F               2         ED First time derivative of Platform vertical heave translation DOF (internal DOF index = DOF_Hv), m/s
         11    9.414E-06                                 F               2         ED First time derivative of Platform roll tilt rotation DOF (internal DOF index = DOF_R), rad/s
         12   -3.447E-05                                 F               2         ED First time derivative of Platform pitch tilt rotation DOF (internal DOF index = DOF_P), rad/s
         13    1.110E-04                                 F               2         ED First time derivative of Platform yaw rotation DOF (internal DOF index = DOF_Y), rad/s
         14    1.047E+00                                 F               2         ED First time derivative of Variable speed generator DOF (internal DOF index = DOF_GeAz), rad/s

Order of continuous state derivatives:
   Row/Column Operating Point                     Rotating Frame? Derivative Order Description
   ---------- ---------------                     --------------- ---------------- -----------
          1    1.178E-04                                 F               2         First time derivative of ED Platform horizontal surge translation DOF (internal DOF index = DOF_Sg), m/s
          2   -1.470E-04                                 F               2         First time derivative of ED Platform horizontal sway translation DOF (internal DOF index = DOF_Sw), m/s
          3    2.227E-03                                 F               2         First time derivative of ED Platform vertical heave translation DOF (internal DOF index = DOF_Hv), m/s
          4    9.414E-06                                 F               2         First time derivative of ED Platform roll tilt rotation DOF (internal DOF index = DOF_R), rad/s
          5   -3.447E-05                                 F               2         First time derivative of ED Platform pitch tilt rotation DOF (internal DOF index = DOF_P), rad/s
          6    1.110E-04                                 F               2         First time derivative of ED Platform yaw rotation DOF (internal DOF index = DOF_Y), rad/s
          7    1.047E+00                                 F               2         First time derivative of ED Variable speed generator DOF (internal DOF index = DOF_GeAz), rad/s
          8    4.147E-05                                 F               2         First time derivative of ED First time derivative of Platform horizontal surge translation DOF (internal DOF index = DOF_Sg), m/s/s
          9   -3.148E-04                                 F               2         First time derivative of ED First time derivative of Platform horizontal sway translation DOF (internal DOF index = DOF_Sw), m/s/s
         10    1.238E-03                                 F               2         First time derivative of ED First time derivative of Platform vertical heave translation DOF (internal DOF index = DOF_Hv), m/s/s
         11   -1.441E-04                                 F               2         First time derivative of ED First time derivative of Platform roll tilt rotation DOF (internal DOF index = DOF_R), rad/s/s
         12   -1.790E-06                                 F               2         First time derivative of ED First time derivative of Platform pitch tilt rotation DOF (internal DOF index = DOF_P), rad/s/s
         13    4.456E-05                                 F               2         First time derivative of ED First time derivative of Platform yaw rotation DOF (internal DOF index = DOF_Y), rad/s/s
         14    3.045E-04                                 F               2         First time derivative of ED First time derivative of Variable speed generator DOF (internal DOF index = DOF_GeAz), rad/s/s

Order of inputs:
     Column   Operating Point                     Rotating Frame? Derivative Order Description
   ---------- ---------------                     --------------- ---------------- -----------
          1   -1.080E+01                                 F               0         IfW X-component position of node 1 (hub), m
          2    0.000E+00                                 F               0         IfW Y-component position of node 1 (hub), m
          3    1.497E+02                                 F               0         IfW Z-component position of node 1 (hub), m
          4    2.293E+01                                 F               0         IfW X-component position of node 2 (blade 1, node 1), m
          5   -5.899E+00                                 F               0         IfW Y-component position of node 2 (blade 1, node 1), m
          6    1.440E+02                                 F               0         IfW Z-component position of node 2 (blade 1, node 1), m
          7    2.259E+01                                 F               0         IfW X-component position of node 3 (blade 1, node 2), m
          8   -5.594E+00                                 F               0         IfW Y-component position of node 3 (blade 1, node 2), m
          9    1.428E+02                                 F               0         IfW Z-component position of node 3 (blade 1, node 2), m
         10    1.805E+01                                 F               0         IfW X-component position of node 4 (blade 1, node 3), m
         11   -1.443E+00                                 F               0         IfW Y-component position of node 4 (blade 1, node 3), m
         12    1.257E+02                                 F               0         IfW Z-component position of node 4 (blade 1, node 3), m
         13    1.708E+01                                 F               0         IfW X-component position of node 5 (blade 1, node 4), m
         14   -5.587E-01                                 F               0         IfW Y-component position of node 5 (blade 1, node 4), m
         15    1.221E+02                                 F               0         IfW Z-component position of node 5 (blade 1, node 4), m
         16    1.611E+01                                 F               0         IfW X-component position of node 6 (blade 1, node 5), m
         17    3.258E-01                                 F               0         IfW Y-component position of node 6 (blade 1, node 5), m
         18    1.184E+02                                 F               0         IfW Z-component position of node 6 (blade 1, node 5), m
         19    1.514E+01                                 F               0         IfW X-component position of node 7 (blade 1, node 6), m
         20    1.210E+00                                 F               0         IfW Y-component position of node 7 (blade 1, node 6), m
         21    1.148E+02                                 F               0         IfW Z-component position of node 7 (blade 1, node 6), m
         22    1.418E+01                                 F               0         IfW X-component position of node 8 (blade 1, node 7), m
         23    2.095E+00                                 F               0         IfW Y-component position of node 8 (blade 1, node 7), m
         24    1.111E+02                                 F               0         IfW Z-component position of node 8 (blade 1, node 7), m
         25    1.321E+01                                 F               0         IfW X-component position of node 9 (blade 1, node 8), m
         26    2.979E+00                                 F               0         IfW Y-component position of node 9 (blade 1, node 8), m
         27    1.075E+02                                 F               0         IfW Z-component position of node 9 (blade 1, node 8), m
         28    1.224E+01                                 F               0         IfW X-component position of node 10 (blade 1, node 9), m
         29    3.863E+00                                 F               0         IfW Y-component position of node 10 (blade 1, node 9), m
         30    1.039E+02                                 F               0         IfW Z-component position of node 10 (blade 1, node 9), m
         31    1.127E+01                                 F               0         IfW X-component position of node 11 (blade 1, node 10), m
         32    4.748E+00                                 F               0         IfW Y-component position of node 11 (blade 1, node 10), m
         33    1.002E+02                                 F               0         IfW Z-component position of node 11 (blade 1, node 10), m
         34    1.030E+01                                 F               0         IfW X-component position of node 12 (blade 1, node 11), m
         35    5.632E+00                                 F               0         IfW Y-component position of node 12 (blade 1, node 11), m
         36    9.659E+01                                 F               0         IfW Z-component position of node 12 (blade 1, node 11), m
         37    9.337E+00                                 F               0         IfW X-component position of node 13 (blade 1, node 12), m
         38    6.517E+00                                 F               0         IfW Y-component position of node 13 (blade 1, node 12), m
         39    9.295E+01                                 F               0         IfW Z-component position of node 13 (blade 1, node 12), m
         40    8.369E+00                                 F               0         IfW X-component position of node 14 (blade 1, node 13), m
         41    7.401E+00                                 F               0         IfW Y-component position of node 14 (blade 1, node 13), m
         42    8.932E+01                                 F               0         IfW Z-component position of node 14 (blade 1, node 13), m
         43    7.401E+00                                 F               0         IfW X-component position of node 15 (blade 1, node 14), m
         44    8.285E+00                                 F               0         IfW Y-component position of node 15 (blade 1, node 14), m
         45    8.568E+01                                 F               0         IfW Z-component position of node 15 (blade 1, node 14), m
         46    6.433E+00                                 F               0         IfW X-component position of node 16 (blade 1, node 15), m
         47    9.170E+00                                 F               0         IfW Y-component position of node 16 (blade 1, node 15), m
         48    8.204E+01                                 F               0         IfW Z-component position of node 16 (blade 1, node 15), m
         49    5.465E+00                                 F               0         IfW X-component position of node 17 (blade 1, node 16), m
         50    1.005E+01                                 F               0         IfW Y-component position of node 17 (blade 1, node 16), m
         51    7.840E+01                                 F               0         IfW Z-component position of node 17 (blade 1, node 16), m
         52    4.497E+00                                 F               0         IfW X-component position of node 18 (blade 1, node 17), m
         53    1.094E+01                                 F               0         IfW Y-component position of node 18 (blade 1, node 17), m
         54    7.476E+01                                 F               0         IfW Z-component position of node 18 (blade 1, node 17), m
         55    3.529E+00                                 F               0         IfW X-component position of node 19 (blade 1, node 18), m
         56    1.182E+01                                 F               0         IfW Y-component position of node 19 (blade 1, node 18), m
         57    7.112E+01                                 F               0         IfW Z-component position of node 19 (blade 1, node 18), m
         58    2.561E+00                                 F               0         IfW X-component position of node 20 (blade 1, node 19), m
         59    1.271E+01                                 F               0         IfW Y-component position of node 20 (blade 1, node 19), m
         60    6.748E+01                                 F               0         IfW Z-component position of node 20 (blade 1, node 19), m
         61    1.593E+00                                 F               0         IfW X-component position of node 21 (blade 1, node 20), m
         62    1.359E+01                                 F               0         IfW Y-component position of node 21 (blade 1, node 20), m
         63    6.385E+01                                 F               0         IfW Z-component position of node 21 (blade 1, node 20), m
         64    6.250E-01                                 F               0         IfW X-component position of node 22 (blade 1, node 21), m
         65    1.448E+01                                 F               0         IfW Y-component position of node 22 (blade 1, node 21), m
         66    6.021E+01                                 F               0         IfW Z-component position of node 22 (blade 1, node 21), m
         67   -3.431E-01                                 F               0         IfW X-component position of node 23 (blade 1, node 22), m
         68    1.536E+01                                 F               0         IfW Y-component position of node 23 (blade 1, node 22), m
         69    5.657E+01                                 F               0         IfW Z-component position of node 23 (blade 1, node 22), m
         70   -1.311E+00                                 F               0         IfW X-component position of node 24 (blade 1, node 23), m
         71    1.624E+01                                 F               0         IfW Y-component position of node 24 (blade 1, node 23), m
         72    5.293E+01                                 F               0         IfW Z-component position of node 24 (blade 1, node 23), m
         73   -2.279E+00                                 F               0         IfW X-component position of node 25 (blade 1, node 24), m
         74    1.713E+01                                 F               0         IfW Y-component position of node 25 (blade 1, node 24), m
         75    4.929E+01                                 F               0         IfW Z-component position of node 25 (blade 1, node 24), m
         76   -3.247E+00                                 F               0         IfW X-component position of node 26 (blade 1, node 25), m
         77    1.801E+01                                 F               0         IfW Y-component position of node 26 (blade 1, node 25), m
         78    4.565E+01                                 F               0         IfW Z-component position of node 26 (blade 1, node 25), m
         79   -4.215E+00                                 F               0         IfW X-component position of node 27 (blade 1, node 26), m
         80    1.890E+01                                 F               0         IfW Y-component position of node 27 (blade 1, node 26), m
         81    4.201E+01                                 F               0         IfW Z-component position of node 27 (blade 1, node 26), m
         82   -5.183E+00                                 F               0         IfW X-component position of node 28 (blade 1, node 27), m
         83    1.978E+01                                 F               0         IfW Y-component position of node 28 (blade 1, node 27), m
         84    3.837E+01                                 F               0         IfW Z-component position of node 28 (blade 1, node 27), m
         85   -6.004E+00                                 F               0         IfW X-component position of node 29 (blade 1, node 28), m
         86    2.053E+01                                 F               0         IfW Y-component position of node 29 (blade 1, node 28), m
         87    3.529E+01                                 F               0         IfW Z-component position of node 29 (blade 1, node 28), m
         88    2.520E+01                                 F               0         IfW X-component position of node 30 (blade 2, node 1), m
         89   -3.129E+00                                 F               0         IfW Y-component position of node 30 (blade 2, node 1), m
         90    1.529E+02                                 F               0         IfW Z-component position of node 30 (blade 2, node 1), m
         91    2.541E+01                                 F               0         IfW X-component position of node 31 (blade 2, node 2), m
         92   -2.157E+00                                 F               0         IfW Y-component position of node 31 (blade 2, node 2), m
         93    1.538E+02                                 F               0         IfW Z-component position of node 31 (blade 2, node 2), m
         94    2.830E+01                                 F               0         IfW X-component position of node 32 (blade 2, node 3), m
         95    1.107E+01                                 F               0         IfW Y-component position of node 32 (blade 2, node 3), m
         96    1.659E+02                                 F               0         IfW Z-component position of node 32 (blade 2, node 3), m
         97    2.892E+01                                 F               0         IfW X-component position of node 33 (blade 2, node 4), m
         98    1.389E+01                                 F               0         IfW Y-component position of node 33 (blade 2, node 4), m
         99    1.685E+02                                 F               0         IfW Z-component position of node 33 (blade 2, node 4), m
        100    2.953E+01                                 F               0         IfW X-component position of node 34 (blade 2, node 5), m
        101    1.670E+01                                 F               0         IfW Y-component position of node 34 (blade 2, node 5), m
        102    1.711E+02                                 F               0         IfW Z-component position of node 34 (blade 2, node 5), m
        103    3.015E+01                                 F               0         IfW X-component position of node 35 (blade 2, node 6), m
        104    1.952E+01                                 F               0         IfW Y-component position of node 35 (blade 2, node 6), m
        105    1.736E+02                                 F               0         IfW Z-component position of node 35 (blade 2, node 6), m
        106    3.077E+01                                 F               0         IfW X-component position of node 36 (blade 2, node 7), m
        107    2.234E+01                                 F               0         IfW Y-component position of node 36 (blade 2, node 7), m
        108    1.762E+02                                 F               0         IfW Z-component position of node 36 (blade 2, node 7), m
        109    3.138E+01                                 F               0         IfW X-component position of node 37 (blade 2, node 8), m
        110    2.516E+01                                 F               0         IfW Y-component position of node 37 (blade 2, node 8), m
        111    1.788E+02                                 F               0         IfW Z-component position of node 37 (blade 2, node 8), m
        112    3.200E+01                                 F               0         IfW X-component position of node 38 (blade 2, node 9), m
        113    2.798E+01                                 F               0         IfW Y-component position of node 38 (blade 2, node 9), m
        114    1.814E+02                                 F               0         IfW Z-component position of node 38 (blade 2, node 9), m
        115    3.261E+01                                 F               0         IfW X-component position of node 39 (blade 2, node 10), m
        116    3.079E+01                                 F               0         IfW Y-component position of node 39 (blade 2, node 10), m
        117    1.840E+02                                 F               0         IfW Z-component position of node 39 (blade 2, node 10), m
        118    3.323E+01                                 F               0         IfW X-component position of node 40 (blade 2, node 11), m
        119    3.361E+01                                 F               0         IfW Y-component position of node 40 (blade 2, node 11), m
        120    1.865E+02                                 F               0         IfW Z-component position of node 40 (blade 2, node 11), m
        121    3.385E+01                                 F               0         IfW X-component position of node 41 (blade 2, node 12), m
        122    3.643E+01                                 F               0         IfW Y-component position of node 41 (blade 2, node 12), m
        123    1.891E+02                                 F               0         IfW Z-component position of node 41 (blade 2, node 12), m
        124    3.446E+01                                 F               0         IfW X-component position of node 42 (blade 2, node 13), m
        125    3.925E+01                                 F               0         IfW Y-component position of node 42 (blade 2, node 13), m
        126    1.917E+02                                 F               0         IfW Z-component position of node 42 (blade 2, node 13), m
        127    3.508E+01                                 F               0         IfW X-component position of node 43 (blade 2, node 14), m
        128    4.207E+01                                 F               0         IfW Y-component position of node 43 (blade 2, node 14), m
        129    1.943E+02                                 F               0         IfW Z-component position of node 43 (blade 2, node 14), m
        130    3.570E+01                                 F               0         IfW X-component position of node 44 (blade 2, node 15), m
        131    4.488E+01                                 F               0         IfW Y-component position of node 44 (blade 2, node 15), m
        132    1.968E+02                                 F               0         IfW Z-component position of node 44 (blade 2, node 15), m
        133    3.631E+01                                 F               0         IfW X-component position of node 45 (blade 2, node 16), m
        134    4.770E+01                                 F               0         IfW Y-component position of node 45 (blade 2, node 16), m
        135    1.994E+02                                 F               0         IfW Z-component position of node 45 (blade 2, node 16), m
        136    3.693E+01                                 F               0         IfW X-component position of node 46 (blade 2, node 17), m
        137    5.052E+01                                 F               0         IfW Y-component position of node 46 (blade 2, node 17), m
        138    2.020E+02                                 F               0         IfW Z-component position of node 46 (blade 2, node 17), m
        139    3.755E+01                                 F               0         IfW X-component position of node 47 (blade 2, node 18), m
        140    5.334E+01                                 F               0         IfW Y-component position of node 47 (blade 2, node 18), m
        141    2.046E+02                                 F               0         IfW Z-component position of node 47 (blade 2, node 18), m
        142    3.816E+01                                 F               0         IfW X-component position of node 48 (blade 2, node 19), m
        143    5.616E+01                                 F               0         IfW Y-component position of node 48 (blade 2, node 19), m
        144    2.071E+02                                 F               0         IfW Z-component position of node 48 (blade 2, node 19), m
        145    3.878E+01                                 F               0         IfW X-component position of node 49 (blade 2, node 20), m
        146    5.897E+01                                 F               0         IfW Y-component position of node 49 (blade 2, node 20), m
        147    2.097E+02                                 F               0         IfW Z-component position of node 49 (blade 2, node 20), m
        148    3.939E+01                                 F               0         IfW X-component position of node 50 (blade 2, node 21), m
        149    6.179E+01                                 F               0         IfW Y-component position of node 50 (blade 2, node 21), m
        150    2.123E+02                                 F               0         IfW Z-component position of node 50 (blade 2, node 21), m
        151    4.001E+01                                 F               0         IfW X-component position of node 51 (blade 2, node 22), m
        152    6.461E+01                                 F               0         IfW Y-component position of node 51 (blade 2, node 22), m
        153    2.149E+02                                 F               0         IfW Z-component position of node 51 (blade 2, node 22), m
        154    4.063E+01                                 F               0         IfW X-component position of node 52 (blade 2, node 23), m
        155    6.743E+01                                 F               0         IfW Y-component position of node 52 (blade 2, node 23), m
        156    2.175E+02                                 F               0         IfW Z-component position of node 52 (blade 2, node 23), m
        157    4.124E+01                                 F               0         IfW X-component position of node 53 (blade 2, node 24), m
        158    7.025E+01                                 F               0         IfW Y-component position of node 53 (blade 2, node 24), m
        159    2.200E+02                                 F               0         IfW Z-component position of node 53 (blade 2, node 24), m
        160    4.186E+01                                 F               0         IfW X-component position of node 54 (blade 2, node 25), m
        161    7.306E+01                                 F               0         IfW Y-component position of node 54 (blade 2, node 25), m
        162    2.226E+02                                 F               0         IfW Z-component position of node 54 (blade 2, node 25), m
        163    4.248E+01                                 F               0         IfW X-component position of node 55 (blade 2, node 26), m
        164    7.588E+01                                 F               0         IfW Y-component position of node 55 (blade 2, node 26), m
        165    2.252E+02                                 F               0         IfW Z-component position of node 55 (blade 2, node 26), m