
Linearized model: Predictions were generated on 30-Jan-2024 at 18:20:32 using OpenFAST, compiled as a 64-bit application using single precision at commit v3.5.1
 linked with  NWTC Subroutine Library; ElastoDyn; InflowWind; AeroDyn; ServoDyn; HydroDyn; MAP++ (<1.20.10>, <Oct-20-2023>)

Description from the FAST input file: CCT-9 Campign 4 model. Input files to be run with OpenFAST 3.5.0. GitHub branch from Lu Wang (https://github.com/luwang00/openfast/tree/dev) compiled on March 7, 2023.

Simulation information:
   Simulation time:                   505.4500 s
   Rotor Speed:                         0.8795 rad/s
   Azimuth:                             3.6699 rad
   Wind Speed:                         10.0000 m/s
   Number of continuous states:        14
   Number of discrete states:           0
   Number of constraint states:         0
   Number of inputs:                 1890
   Number of outputs:                  19
   Jacobians included in this file?    No

Order of continuous states:
   Row/Column Operating Point                     Rotating Frame? Derivative Order Description
   ---------- ---------------                     --------------- ---------------- -----------
          1    8.868E+00                                 F               2         Platform horizontal surge translation DOF (internal DOF index = DOF_Sg), m
          2   -3.545E-01                                 F               2         Platform horizontal sway translation DOF (internal DOF index = DOF_Sw), m
          3   -1.615E-01                                 F               2         Platform vertical heave translation DOF (internal DOF index = DOF_Hv), m
          4    4.251E-02                                 F               2         Platform roll tilt rotation DOF (internal DOF index = DOF_R), rad
          5    1.155E-01                                 F               2         Platform pitch tilt rotation DOF (internal DOF index = DOF_P), rad
          6    7.422E-03                                 F               2         Platform yaw rotation DOF (internal DOF index = DOF_Y), rad
          7    2.099E+00                                 F               2         Variable speed generator DOF (internal DOF index = DOF_GeAz), rad
          8   -4.236E-03                                 F               2         First time derivative of Platform horizontal surge translation DOF (internal DOF index = DOF_Sg), m/s
          9    2.175E-04                                 F               2         First time derivative of Platform horizontal sway translation DOF (internal DOF index = DOF_Sw), m/s
         10    4.543E-03                                 F               2         First time derivative of Platform vertical heave translation DOF (internal DOF index = DOF_Hv), m/s
         11    2.505E-04                                 F               2         First time derivative of Platform roll tilt rotation DOF (internal DOF index = DOF_R), rad/s
         12    2.517E-05                                 F               2         First time derivative of Platform pitch tilt rotation DOF (internal DOF index = DOF_P), rad/s
         13   -6.657E-05                                 F               2         First time derivative of Platform yaw rotation DOF (internal DOF index = DOF_Y), rad/s
         14    8.795E-01                                 F               2         First time derivative of Variable speed generator DOF (internal DOF index = DOF_GeAz), rad/s

Order of continuous state derivatives:
   Row/Column Operating Point                     Rotating Frame? Derivative Order Description
   ---------- ---------------                     --------------- ---------------- -----------
          1   -4.236E-03                                 F               2         First time derivative of Platform horizontal surge translation DOF (internal DOF index = DOF_Sg), m/s
          2    2.175E-04                                 F               2         First time derivative of Platform horizontal sway translation DOF (internal DOF index = DOF_Sw), m/s
          3    4.543E-03                                 F               2         First time derivative of Platform vertical heave translation DOF (internal DOF index = DOF_Hv), m/s
          4    2.505E-04                                 F               2         First time derivative of Platform roll tilt rotation DOF (internal DOF index = DOF_R), rad/s
          5    2.517E-05                                 F               2         First time derivative of Platform pitch tilt rotation DOF (internal DOF index = DOF_P), rad/s
          6   -6.657E-05                                 F               2         First time derivative of Platform yaw rotation DOF (internal DOF index = DOF_Y), rad/s
          7    8.795E-01                                 F               2         First time derivative of Variable speed generator DOF (internal DOF index = DOF_GeAz), rad/s
          8   -3.150E-04                                 F               2         First time derivative of First time derivative of Platform horizontal surge translation DOF (internal DOF index = DOF_Sg), m/s/s
          9   -5.999E-04                                 F               2         First time derivative of First time derivative of Platform horizontal sway translation DOF (internal DOF index = DOF_Sw), m/s/s
         10    1.251E-04                                 F               2         First time derivative of First time derivative of Platform vertical heave translation DOF (internal DOF index = DOF_Hv), m/s/s
         11    8.468E-05                                 F               2         First time derivative of First time derivative of Platform roll tilt rotation DOF (internal DOF index = DOF_R), rad/s/s
         12   -5.497E-06                                 F               2         First time derivative of First time derivative of Platform pitch tilt rotation DOF (internal DOF index = DOF_P), rad/s/s
         13   -1.060E-05                                 F               2         First time derivative of First time derivative of Platform yaw rotation DOF (internal DOF index = DOF_Y), rad/s/s
         14    1.686E-05                                 F               2         First time derivative of First time derivative of Variable speed generator DOF (internal DOF index = DOF_GeAz), rad/s/s

Order of inputs:
     Column   Operating Point                     Rotating Frame? Derivative Order Description
   ---------- ---------------                     --------------- ---------------- -----------
          1    6.249E+01                                 F               0         Blade 1 X force, node 1, N
          2   -4.593E+01                                 F               0         Blade 1 Y force, node 1, N
          3   -4.467E+01                                 F               0         Blade 1 Z force, node 1, N
          4    2.892E+02                                 F               0         Blade 1 X force, node 2, N
          5   -8.827E+01                                 F               0         Blade 1 Y force, node 2, N
          6   -1.252E+02                                 F               0         Blade 1 Z force, node 2, N
          7    4.043E+02                                 F               0         Blade 1 X force, node 3, N
          8   -3.507E+01                                 F               0         Blade 1 Y force, node 3, N
          9   -1.170E+02                                 F               0         Blade 1 Z force, node 3, N
         10    5.503E+02                                 F               0         Blade 1 X force, node 4, N
         11    7.917E+00                                 F               0         Blade 1 Y force, node 4, N
         12   -1.227E+02                                 F               0         Blade 1 Z force, node 4, N
         13    6.964E+02                                 F               0         Blade 1 X force, node 5, N
         14    5.090E+01                                 F               0         Blade 1 Y force, node 5, N
         15   -1.285E+02                                 F               0         Blade 1 Z force, node 5, N
         16    8.424E+02                                 F               0         Blade 1 X force, node 6, N
         17    9.389E+01                                 F               0         Blade 1 Y force, node 6, N
         18   -1.342E+02                                 F               0         Blade 1 Z force, node 6, N
         19    9.884E+02                                 F               0         Blade 1 X force, node 7, N
         20    1.369E+02                                 F               0         Blade 1 Y force, node 7, N
         21   -1.399E+02                                 F               0         Blade 1 Z force, node 7, N
         22    1.134E+03                                 F               0         Blade 1 X force, node 8, N
         23    1.799E+02                                 F               0         Blade 1 Y force, node 8, N
         24   -1.457E+02                                 F               0         Blade 1 Z force, node 8, N
         25    1.280E+03                                 F               0         Blade 1 X force, node 9, N
         26    2.228E+02                                 F               0         Blade 1 Y force, node 9, N
         27   -1.514E+02                                 F               0         Blade 1 Z force, node 9, N
         28    1.426E+03                                 F               0         Blade 1 X force, node 10, N
         29    2.658E+02                                 F               0         Blade 1 Y force, node 10, N
         30   -1.571E+02                                 F               0         Blade 1 Z force, node 10, N
         31    1.572E+03                                 F               0         Blade 1 X force, node 11, N
         32    3.088E+02                                 F               0         Blade 1 Y force, node 11, N
         33   -1.629E+02                                 F               0         Blade 1 Z force, node 11, N
         34    1.719E+03                                 F               0         Blade 1 X force, node 12, N
         35    3.518E+02                                 F               0         Blade 1 Y force, node 12, N
         36   -1.686E+02                                 F               0         Blade 1 Z force, node 12, N
         37    1.865E+03                                 F               0         Blade 1 X force, node 13, N
         38    3.948E+02                                 F               0         Blade 1 Y force, node 13, N
         39   -1.743E+02                                 F               0         Blade 1 Z force, node 13, N
         40    2.011E+03                                 F               0         Blade 1 X force, node 14, N
         41    4.378E+02                                 F               0         Blade 1 Y force, node 14, N
         42   -1.801E+02                                 F               0         Blade 1 Z force, node 14, N
         43    2.157E+03                                 F               0         Blade 1 X force, node 15, N
         44    4.808E+02                                 F               0         Blade 1 Y force, node 15, N
         45   -1.858E+02                                 F               0         Blade 1 Z force, node 15, N
         46    2.303E+03                                 F               0         Blade 1 X force, node 16, N
         47    5.238E+02                                 F               0         Blade 1 Y force, node 16, N
         48   -1.915E+02                                 F               0         Blade 1 Z force, node 16, N
         49    2.840E+03                                 F               0         Blade 1 X force, node 17, N
         50    6.548E+02                                 F               0         Blade 1 Y force, node 17, N
         51   -2.305E+02                                 F               0         Blade 1 Z force, node 17, N
         52    2.175E+03                                 F               0         Blade 1 X force, node 18, N
         53    4.850E+02                                 F               0         Blade 1 Y force, node 18, N
         54   -1.872E+02                                 F               0         Blade 1 Z force, node 18, N
         55    2.676E+03                                 F               0         Blade 1 X force, node 19, N
         56    5.696E+02                                 F               0         Blade 1 Y force, node 19, N
         57   -2.482E+02                                 F               0         Blade 1 Z force, node 19, N
         58    2.287E+03                                 F               0         Blade 1 X force, node 20, N
         59    4.656E+02                                 F               0         Blade 1 Y force, node 20, N
         60   -2.261E+02                                 F               0         Blade 1 Z force, node 20, N
         61    3.386E+03                                 F               0         Blade 1 X force, node 21, N
         62    6.545E+02                                 F               0         Blade 1 Y force, node 21, N
         63   -3.577E+02                                 F               0         Blade 1 Z force, node 21, N
         64    2.997E+03                                 F               0         Blade 1 X force, node 22, N
         65    5.499E+02                                 F               0         Blade 1 Y force, node 22, N
         66   -3.358E+02                                 F               0         Blade 1 Z force, node 22, N
         67    3.085E+03                                 F               0         Blade 1 X force, node 23, N
         68    5.399E+02                                 F               0         Blade 1 Y force, node 23, N
         69   -3.628E+02                                 F               0         Blade 1 Z force, node 23, N
         70    3.228E+03                                 F               0         Blade 1 X force, node 24, N
         71    5.393E+02                                 F               0         Blade 1 Y force, node 24, N
         72   -3.966E+02                                 F               0         Blade 1 Z force, node 24, N
         73    3.315E+03                                 F               0         Blade 1 X force, node 25, N
         74    5.289E+02                                 F               0         Blade 1 Y force, node 25, N
         75   -4.236E+02                                 F               0         Blade 1 Z force, node 25, N
         76    3.421E+03                                 F               0         Blade 1 X force, node 26, N
         77    5.216E+02                                 F               0         Blade 1 Y force, node 26, N
         78   -4.529E+02                                 F               0         Blade 1 Z force, node 26, N
         79    4.107E+03                                 F               0         Blade 1 X force, node 27, N
         80    5.974E+02                                 F               0         Blade 1 Y force, node 27, N
         81   -5.627E+02                                 F               0         Blade 1 Z force, node 27, N
         82    3.050E+03                                 F               0         Blade 1 X force, node 28, N
         83    4.239E+02                                 F               0         Blade 1 Y force, node 28, N
         84   -4.309E+02                                 F               0         Blade 1 Z force, node 28, N
         85    3.737E+03                                 F               0         Blade 1 X force, node 29, N
         86    4.996E+02                                 F               0         Blade 1 Y force, node 29, N
         87   -5.408E+02                                 F               0         Blade 1 Z force, node 29, N
         88    3.183E+03                                 F               0         Blade 1 X force, node 30, N
         89    4.098E+02                                 F               0         Blade 1 Y force, node 30, N
         90   -4.711E+02                                 F               0         Blade 1 Z force, node 30, N
         91    4.606E+03                                 F               0         Blade 1 X force, node 31, N
         92    5.673E+02                                 F               0         Blade 1 Y force, node 31, N
         93   -6.985E+02                                 F               0         Blade 1 Z force, node 31, N
         94    4.052E+03                                 F               0         Blade 1 X force, node 32, N
         95    4.773E+02                                 F               0         Blade 1 Y force, node 32, N
         96   -6.288E+02                                 F               0         Blade 1 Z force, node 32, N
         97    4.156E+03                                 F               0         Blade 1 X force, node 33, N
         98    4.697E+02                                 F               0         Blade 1 Y force, node 33, N
         99   -6.580E+02                                 F               0         Blade 1 Z force, node 33, N
        100    4.262E+03                                 F               0         Blade 1 X force, node 34, N
        101    4.623E+02                                 F               0         Blade 1 Y force, node 34, N
        102   -6.874E+02                                 F               0         Blade 1 Z force, node 34, N
        103    4.367E+03                                 F               0         Blade 1 X force, node 35, N
        104    4.548E+02                                 F               0         Blade 1 Y force, node 35, N
        105   -7.167E+02                                 F               0         Blade 1 Z force, node 35, N
        106    4.471E+03                                 F               0         Blade 1 X force, node 36, N
        107    4.472E+02                                 F               0         Blade 1 Y force, node 36, N
        108   -7.460E+02                                 F               0         Blade 1 Z force, node 36, N
        109    5.354E+03                                 F               0         Blade 1 X force, node 37, N
        110    5.131E+02                                 F               0         Blade 1 Y force, node 37, N
        111   -9.080E+02                                 F               0         Blade 1 Z force, node 37, N
        112    3.903E+03                                 F               0         Blade 1 X force, node 38, N
        113    3.588E+02                                 F               0         Blade 1 Y force, node 38, N
        114   -6.720E+02                                 F               0         Blade 1 Z force, node 38, N
        115    4.788E+03                                 F               0         Blade 1 X force, node 39, N
        116    4.249E+02                                 F               0         Blade 1 Y force, node 39, N
        117   -8.342E+02                                 F               0         Blade 1 Z force, node 39, N
        118    4.085E+03                                 F               0         Blade 1 X force, node 40, N
        119    3.500E+02                                 F               0         Blade 1 Y force, node 40, N
        120   -7.200E+02                                 F               0         Blade 1 Z force, node 40, N
        121    5.807E+03                                 F               0         Blade 1 X force, node 41, N
        122    4.775E+02                                 F               0         Blade 1 Y force, node 41, N
        123   -1.037E+03                                 F               0         Blade 1 Z force, node 41, N
        124    5.103E+03                                 F               0         Blade 1 X force, node 42, N
        125    4.024E+02                                 F               0         Blade 1 Y force, node 42, N
        126   -9.223E+02                                 F               0         Blade 1 Z force, node 42, N
        127    5.207E+03                                 F               0         Blade 1 X force, node 43, N
        128    3.948E+02                                 F               0         Blade 1 Y force, node 43, N
        129   -9.515E+02                                 F               0         Blade 1 Z force, node 43, N
        130    5.340E+03                                 F               0         Blade 1 X force, node 44, N
        131    3.892E+02                                 F               0         Blade 1 Y force, node 44, N
        132   -9.860E+02                                 F               0         Blade 1 Z force, node 44, N
        133    5.388E+03                                 F               0         Blade 1 X force, node 45, N
        134    3.776E+02                                 F               0         Blade 1 Y force, node 45, N
        135   -1.005E+03                                 F               0         Blade 1 Z force, node 45, N
        136    5.521E+03                                 F               0         Blade 1 X force, node 46, N
        137    3.720E+02                                 F               0         Blade 1 Y force, node 46, N
        138   -1.039E+03                                 F               0         Blade 1 Z force, node 46, N
        139    6.613E+03                                 F               0         Blade 1 X force, node 47, N
        140    4.273E+02                                 F               0         Blade 1 Y force, node 47, N
        141   -1.257E+03                                 F               0         Blade 1 Z force, node 47, N
        142    4.743E+03                                 F               0         Blade 1 X force, node 48, N
        143    2.940E+02                                 F               0         Blade 1 Y force, node 48, N
        144   -9.096E+02                                 F               0         Blade 1 Z force, node 48, N
        145    5.834E+03                                 F               0         Blade 1 X force, node 49, N
        146    3.493E+02                                 F               0         Blade 1 Y force, node 49, N
        147   -1.127E+03                                 F               0         Blade 1 Z force, node 49, N
        148    4.993E+03                                 F               0         Blade 1 X force, node 50, N
        149    2.885E+02                                 F               0         Blade 1 Y force, node 50, N
        150   -9.715E+02                                 F               0         Blade 1 Z force, node 50, N
        151    6.987E+03                                 F               0         Blade 1 X force, node 51, N
        152    3.872E+02                                 F               0         Blade 1 Y force, node 51, N
        153   -1.370E+03                                 F               0         Blade 1 Z force, node 51, N
        154    6.149E+03                                 F               0         Blade 1 X force, node 52, N
        155    3.267E+02                                 F               0         Blade 1 Y force, node 52, N
        156   -1.215E+03                                 F               0         Blade 1 Z force, node 52, N
        157    6.255E+03                                 F               0         Blade 1 X force, node 53, N
        158    3.193E+02                                 F               0         Blade 1 Y force, node 53, N
        159   -1.244E+03                                 F               0         Blade 1 Z force, node 53, N
        160    6.430E+03                                 F               0         Blade 1 X force, node 54, N
        161    3.152E+02                                 F               0         Blade 1 Y force, node 54, N
        162   -1.288E+03                                 F               0         Blade 1 Z force, node 54, N
        163    6.396E+03                                 F               0         Blade 1 X force, node 55, N
        164    3.010E+02                                 F               0         Blade 1 Y force, node 55, N
        165   -1.289E+03                                 F               0         Blade 1 Z force, node 55, N
        166    6.571E+03                                 F               0         Blade 1 X force, node 56, N
        167    2.969E+02                                 F               0         Blade 1 Y force, node 56, N
        168   -1.333E+03                                 F               0         Blade 1 Z force, node 56, N
        169    7.885E+03                                 F               0         Blade 1 X force, node 57, N
        170    3.408E+02                                 F               0         Blade 1 Y force, node 57, N
        171   -1.609E+03                                 F               0         Blade 1 Z force, node 57, N
        172    5.573E+03                                 F               0         Blade 1 X force, node 58, N
        173    2.305E+02                                 F               0         Blade 1 Y force, node 58, N
        174   -1.144E+03                                 F               0         Blade 1 Z force, node 58, N
        175    6.887E+03                                 F               0         Blade 1 X force, node 59, N
        176    2.744E+02                                 F               0         Blade 1 Y force, node 59, N
        177   -1.421E+03                                 F               0         Blade 1 Z force, node 59, N
        178    5.922E+03                                 F               0         Blade 1 X force, node 60, N
        179    2.271E+02                                 F               0         Blade 1 Y force, node 60, N
        180   -1.228E+03                                 F               0         Blade 1 Z force, node 60, N
        181    8.168E+03                                 F               0         Blade 1 X force, node 61, N
        182    2.993E+02                                 F               0         Blade 1 Y force, node 61, N
        183   -1.703E+03                                 F               0         Blade 1 Z force, node 61, N
        184    7.201E+03                                 F               0         Blade 1 X force, node 62, N
        185    2.518E+02                                 F               0         Blade 1 Y force, node 62, N
        186   -1.509E+03                                 F               0         Blade 1 Z force, node 62, N
        187    7.305E+03                                 F               0         Blade 1 X force, node 63, N
        188    2.441E+02                                 F               0         Blade 1 Y force, node 63, N
        189   -1.538E+03                                 F               0         Blade 1 Z force, node 63, N
        190    7.532E+03                                 F               0         Blade 1 X force, node 64, N
        191    2.404E+02                                 F               0         Blade 1 Y force, node 64, N
        192   -1.593E+03                                 F               0         Blade 1 Z force, node 64, N
        193    7.391E+03                                 F               0         Blade 1 X force, node 65, N
        194    2.252E+02                                 F               0         Blade 1 Y force, node 65, N
        195   -1.570E+03                                 F               0         Blade 1 Z force, node 65, N
        196    7.622E+03                                 F               0         Blade 1 X force, node 66, N
        197    2.218E+02                                 F               0         Blade 1 Y force, node 66, N
        198   -1.626E+03                                 F               0         Blade 1 Z force, node 66, N
        199    9.169E+03                                 F               0         Blade 1 X force, node 67, N
        200    2.535E+02                                 F               0         Blade 1 Y force, node 67, N
        201   -1.965E+03                                 F               0         Blade 1 Z force, node 67, N
        202    6.395E+03                                 F               0         Blade 1 X force, node 68, N
        203    1.679E+02                                 F               0         Blade 1 Y force, node 68, N
        204   -1.377E+03                                 F               0         Blade 1 Z force, node 68, N
        205    7.941E+03                                 F               0         Blade 1 X force, node 69, N
        206    1.995E+02                                 F               0         Blade 1 Y force, node 69, N
        207   -1.715E+03                                 F               0         Blade 1 Z force, node 69, N
        208    6.862E+03                                 F               0         Blade 1 X force, node 70, N
        209    1.645E+02                                 F               0         Blade 1 Y force, node 70, N
        210   -1.487E+03                                 F               0         Blade 1 Z force, node 70, N