
Linearized model: Predictions were generated on 30-Jan-2024 at 18:20:32 using OpenFAST, compiled as a 64-bit application using single precision at commit v3.5.1
 linked with  NWTC Subroutine Library; ElastoDyn; InflowWind; AeroDyn; ServoDyn; HydroDyn; MAP++ (<1.20.10>, <Oct-20-2023>)

Description from the FAST input file: CCT-9 Campign 4 model. Input files to be run with OpenFAST 3.5.0. GitHub branch from Lu Wang (https://github.com/luwang00/openfast/tree/dev) compiled on March 7, 2023.

Simulation information:
   Simulation time:                   505.7000 s
   Rotor Speed:                         0.8795 rad/s
   Azimuth:                             3.8898 rad
   Wind Speed:                         10.0000 m/s
   Number of continuous states:         0
   Number of discrete states:           0
   Number of constraint states:         0
   Number of inputs:                 1746
   Number of outputs:                   4
   Jacobians included in this file?    No

Order of inputs:
     Column   Operating Point                     Rotating Frame? Derivative Order Description
   ---------- ---------------                     --------------- ---------------- -----------
          1    1.097E+01                                 F               0         Tower X translation displacement, node 1, m
          2   -1.122E+00                                 F               0         Tower Y translation displacement, node 1, m
          3   -2.978E-01                                 F               0         Tower Z translation displacement, node 1, m
          4    1.239E+01                                 F               0         Tower X translation displacement, node 2, m
          5   -1.638E+00                                 F               0         Tower Y translation displacement, node 2, m
          6   -3.904E-01                                 F               0         Tower Z translation displacement, node 2, m
          7    1.381E+01                                 F               0         Tower X translation displacement, node 3, m
          8   -2.155E+00                                 F               0         Tower Y translation displacement, node 3, m
          9   -4.830E-01                                 F               0         Tower Z translation displacement, node 3, m
         10    1.523E+01                                 F               0         Tower X translation displacement, node 4, m
         11   -2.672E+00                                 F               0         Tower Y translation displacement, node 4, m
         12   -5.756E-01                                 F               0         Tower Z translation displacement, node 4, m
         13    1.665E+01                                 F               0         Tower X translation displacement, node 5, m
         14   -3.189E+00                                 F               0         Tower Y translation displacement, node 5, m
         15   -6.682E-01                                 F               0         Tower Z translation displacement, node 5, m
         16    1.807E+01                                 F               0         Tower X translation displacement, node 6, m
         17   -3.705E+00                                 F               0         Tower Y translation displacement, node 6, m
         18   -7.608E-01                                 F               0         Tower Z translation displacement, node 6, m
         19    1.948E+01                                 F               0         Tower X translation displacement, node 7, m
         20   -4.222E+00                                 F               0         Tower Y translation displacement, node 7, m
         21   -8.534E-01                                 F               0         Tower Z translation displacement, node 7, m
         22    2.090E+01                                 F               0         Tower X translation displacement, node 8, m
         23   -4.739E+00                                 F               0         Tower Y translation displacement, node 8, m
         24   -9.460E-01                                 F               0         Tower Z translation displacement, node 8, m
         25    2.232E+01                                 F               0         Tower X translation displacement, node 9, m
         26   -5.256E+00                                 F               0         Tower Y translation displacement, node 9, m
         27   -1.039E+00                                 F               0         Tower Z translation displacement, node 9, m
         28    2.374E+01                                 F               0         Tower X translation displacement, node 10, m
         29   -5.773E+00                                 F               0         Tower Y translation displacement, node 10, m
         30   -1.131E+00                                 F               0         Tower Z translation displacement, node 10, m
         31    2.516E+01                                 F               0         Tower X translation displacement, node 11, m
         32   -6.289E+00                                 F               0         Tower Y translation displacement, node 11, m
         33   -1.224E+00                                 F               0         Tower Z translation displacement, node 11, m
         34    9.934E-01,  9.781E-03, -1.145E-01         F               0         Tower X orientation angle, node 1, rad
         35   -4.918E-03,  9.991E-01,  4.267E-02         F               0         Tower Y orientation angle, node 1, rad
         36    1.148E-01, -4.183E-02,  9.925E-01         F               0         Tower Z orientation angle, node 1, rad
         37    9.934E-01,  9.781E-03, -1.145E-01         F               0         Tower X orientation angle, node 2, rad
         38   -4.918E-03,  9.991E-01,  4.267E-02         F               0         Tower Y orientation angle, node 2, rad
         39    1.148E-01, -4.183E-02,  9.925E-01         F               0         Tower Z orientation angle, node 2, rad
         40    9.934E-01,  9.781E-03, -1.145E-01         F               0         Tower X orientation angle, node 3, rad
         41   -4.918E-03,  9.991E-01,  4.267E-02         F               0         Tower Y orientation angle, node 3, rad
         42    1.148E-01, -4.183E-02,  9.925E-01         F               0         Tower Z orientation angle, node 3, rad
         43    9.934E-01,  9.781E-03, -1.145E-01         F               0         Tower X orientation angle, node 4, rad
         44   -4.918E-03,  9.991E-01,  4.267E-02         F               0         Tower Y orientation angle, node 4, rad
         45    1.148E-01, -4.183E-02,  9.925E-01         F               0         Tower Z orientation angle, node 4, rad
         46    9.934E-01,  9.781E-03, -1.145E-01         F               0         Tower X orientation angle, node 5, rad
         47   -4.918E-03,  9.991E-01,  4.267E-02         F               0         Tower Y orientation angle, node 5, rad
         48    1.148E-01, -4.183E-02,  9.925E-01         F               0         Tower Z orientation angle, node 5, rad
         49    9.934E-01,  9.781E-03, -1.145E-01         F               0         Tower X orientation angle, node 6, rad
         50   -4.918E-03,  9.991E-01,  4.267E-02         F               0         Tower Y orientation angle, node 6, rad
         51    1.148E-01, -4.183E-02,  9.925E-01         F               0         Tower Z orientation angle, node 6, rad
         52    9.934E-01,  9.781E-03, -1.145E-01         F               0         Tower X orientation angle, node 7, rad
         53   -4.918E-03,  9.991E-01,  4.267E-02         F               0         Tower Y orientation angle, node 7, rad
         54    1.148E-01, -4.183E-02,  9.925E-01         F               0         Tower Z orientation angle, node 7, rad
         55    9.934E-01,  9.781E-03, -1.145E-01         F               0         Tower X orientation angle, node 8, rad
         56   -4.918E-03,  9.991E-01,  4.267E-02         F               0         Tower Y orientation angle, node 8, rad
         57    1.148E-01, -4.183E-02,  9.925E-01         F               0         Tower Z orientation angle, node 8, rad
         58    9.934E-01,  9.781E-03, -1.145E-01         F               0         Tower X orientation angle, node 9, rad
         59   -4.918E-03,  9.991E-01,  4.267E-02         F               0         Tower Y orientation angle, node 9, rad
         60    1.148E-01, -4.183E-02,  9.925E-01         F               0         Tower Z orientation angle, node 9, rad
         61    9.934E-01,  9.781E-03, -1.145E-01         F               0         Tower X orientation angle, node 10, rad
         62   -4.918E-03,  9.991E-01,  4.267E-02         F               0         Tower Y orientation angle, node 10, rad
         63    1.148E-01, -4.183E-02,  9.925E-01         F               0         Tower Z orientation angle, node 10, rad
         64    9.934E-01,  9.781E-03, -1.145E-01         F               0         Tower X orientation angle, node 11, rad
         65   -4.918E-03,  9.991E-01,  4.267E-02         F               0         Tower Y orientation angle, node 11, rad
         66    1.148E-01, -4.183E-02,  9.925E-01         F               0         Tower Z orientation angle, node 11, rad
         67   -3.936E-03                                 F               0         Tower X translation velocity, node 1, m/s
         68   -4.996E-03                                 F               0         Tower Y translation velocity, node 1, m/s
         69    4.299E-03                                 F               0         Tower Z translation velocity, node 1, m/s
         70   -3.681E-03                                 F               0         Tower X translation velocity, node 2, m/s
         71   -8.414E-03                                 F               0         Tower Y translation velocity, node 2, m/s
         72    4.126E-03                                 F               0         Tower Z translation velocity, node 2, m/s
         73   -3.426E-03                                 F               0         Tower X translation velocity, node 3, m/s
         74   -1.183E-02                                 F               0         Tower Y translation velocity, node 3, m/s
         75    3.952E-03                                 F               0         Tower Z translation velocity, node 3, m/s
         76   -3.171E-03                                 F               0         Tower X translation velocity, node 4, m/s
         77   -1.525E-02                                 F               0         Tower Y translation velocity, node 4, m/s
         78    3.779E-03                                 F               0         Tower Z translation velocity, node 4, m/s
         79   -2.916E-03                                 F               0         Tower X translation velocity, node 5, m/s
         80   -1.867E-02                                 F               0         Tower Y translation velocity, node 5, m/s
         81    3.605E-03                                 F               0         Tower Z translation velocity, node 5, m/s
         82   -2.661E-03                                 F               0         Tower X translation velocity, node 6, m/s
         83   -2.209E-02                                 F               0         Tower Y translation velocity, node 6, m/s
         84    3.432E-03                                 F               0         Tower Z translation velocity, node 6, m/s
         85   -2.406E-03                                 F               0         Tower X translation velocity, node 7, m/s
         86   -2.550E-02                                 F               0         Tower Y translation velocity, node 7, m/s
         87    3.258E-03                                 F               0         Tower Z translation velocity, node 7, m/s
         88   -2.151E-03                                 F               0         Tower X translation velocity, node 8, m/s
         89   -2.892E-02                                 F               0         Tower Y translation velocity, node 8, m/s
         90    3.085E-03                                 F               0         Tower Z translation velocity, node 8, m/s
         91   -1.896E-03                                 F               0         Tower X translation velocity, node 9, m/s
         92   -3.234E-02                                 F               0         Tower Y translation velocity, node 9, m/s
         93    2.911E-03                                 F               0         Tower Z translation velocity, node 9, m/s
         94   -1.641E-03                                 F               0         Tower X translation velocity, node 10, m/s
         95   -3.576E-02                                 F               0         Tower Y translation velocity, node 10, m/s
         96    2.738E-03                                 F               0         Tower Z translation velocity, node 10, m/s
         97   -1.386E-03                                 F               0         Tower X translation velocity, node 11, m/s
         98   -3.918E-02                                 F               0         Tower Y translation velocity, node 11, m/s
         99    2.564E-03                                 F               0         Tower Z translation velocity, node 11, m/s
        100    2.613E+01                                 F               0         Hub X translation displacement, node 1, m
        101   -6.723E+00                                 F               0         Hub Y translation displacement, node 1, m
        102   -4.588E-02                                 F               0         Hub Z translation displacement, node 1, m
        103    9.759E-01,  1.410E-02, -2.176E-01         F               0         Hub X orientation angle, node 1, rad
        104   -1.447E-01, -7.046E-01, -6.947E-01         F               0         Hub Y orientation angle, node 1, rad
        105   -1.631E-01,  7.094E-01, -6.856E-01         F               0         Hub Z orientation angle, node 1, rad
        106    8.586E-01                                 F               0         Hub X rotation velocity, node 1, rad/s
        107    1.242E-02                                 F               0         Hub Y rotation velocity, node 1, rad/s
        108   -1.915E-01                                 F               0         Hub Z rotation velocity, node 1, rad/s
        109    9.798E-01,  3.500E-02, -1.969E-01         F               0         Blade root 1 X orientation angle, node 1, rad
        110   -1.157E-01, -7.039E-01, -7.008E-01         F               0         Blade root 1 Y orientation angle, node 1, rad
        111   -1.631E-01,  7.094E-01, -6.856E-01         F               0         Blade root 1 Z orientation angle, node 1, rad
        112    9.775E-01, -1.459E-02, -2.102E-01         F               0         Blade root 2 X orientation angle, node 1, rad
        113   -3.994E-02,  9.667E-01, -2.528E-01         F               0         Blade root 2 Y orientation angle, node 1, rad
        114    2.069E-01,  2.555E-01,  9.444E-01         F               0         Blade root 2 Z orientation angle, node 1, rad
        115    9.692E-01,  2.187E-02, -2.455E-01         F               0         Blade root 3 X orientation angle, node 1, rad
        116    2.425E-01, -2.616E-01,  9.342E-01         F               0         Blade root 3 Y orientation angle, node 1, rad
        117   -4.377E-02, -9.649E-01, -2.588E-01         F               0         Blade root 3 Z orientation angle, node 1, rad
        118    2.465E+01                                 F               0         Blade 1 X translation displacement, node 1, m
        119   -2.793E+00                                 F               0         Blade 1 Y translation displacement, node 1, m
        120   -9.354E+00                                 F               0         Blade 1 Z translation displacement, node 1, m
        121    2.429E+01                                 F               0         Blade 1 X translation displacement, node 2, m
        122   -1.846E+00                                 F               0         Blade 1 Y translation displacement, node 2, m
        123   -1.160E+01                                 F               0         Blade 1 Z translation displacement, node 2, m
        124    1.943E+01                                 F               0         Blade 1 X translation displacement, node 3, m
        125    1.103E+01                                 F               0         Blade 1 Y translation displacement, node 3, m
        126   -4.210E+01                                 F               0         Blade 1 Z translation displacement, node 3, m
        127    1.840E+01                                 F               0         Blade 1 X translation displacement, node 4, m
        128    1.378E+01                                 F               0         Blade 1 Y translation displacement, node 4, m
        129   -4.859E+01                                 F               0         Blade 1 Z translation displacement, node 4, m
        130    1.736E+01                                 F               0         Blade 1 X translation displacement, node 5, m
        131    1.652E+01                                 F               0         Blade 1 Y translation displacement, node 5, m
        132   -5.509E+01                                 F               0         Blade 1 Z translation displacement, node 5, m
        133    1.633E+01                                 F               0         Blade 1 X translation displacement, node 6, m
        134    1.926E+01                                 F               0         Blade 1 Y translation displacement, node 6, m
        135   -6.159E+01                                 F               0         Blade 1 Z translation displacement, node 6, m
        136    1.529E+01                                 F               0         Blade 1 X translation displacement, node 7, m
        137    2.201E+01                                 F               0         Blade 1 Y translation displacement, node 7, m
        138   -6.809E+01                                 F               0         Blade 1 Z translation displacement, node 7, m
        139    1.426E+01                                 F               0         Blade 1 X translation displacement, node 8, m
        140    2.475E+01                                 F               0         Blade 1 Y translation displacement, node 8, m
        141   -7.459E+01                                 F               0         Blade 1 Z translation displacement, node 8, m
        142    1.322E+01                                 F               0         Blade 1 X translation displacement, node 9, m
        143    2.750E+01                                 F               0         Blade 1 Y translation displacement, node 9, m
        144   -8.109E+01                                 F               0         Blade 1 Z translation displacement, node 9, m
        145    1.219E+01                                 F               0         Blade 1 X translation displacement, node 10, m
        146    3.024E+01                                 F               0         Blade 1 Y translation displacement, node 10, m
        147   -8.758E+01                                 F               0         Blade 1 Z translation displacement, node 10, m
        148    1.115E+01                                 F               0         Blade 1 X translation displacement, node 11, m
        149    3.298E+01                                 F               0         Blade 1 Y translation displacement, node 11, m
        150   -9.408E+01                                 F               0         Blade 1 Z translation displacement, node 11, m
        151    1.012E+01                                 F               0         Blade 1 X translation displacement, node 12, m
        152    3.573E+01                                 F               0         Blade 1 Y translation displacement, node 12, m
        153   -1.006E+02                                 F               0         Blade 1 Z translation displacement, node 12, m
        154    9.080E+00                                 F               0         Blade 1 X translation displacement, node 13, m
        155    3.847E+01                                 F               0         Blade 1 Y translation displacement, node 13, m
        156   -1.071E+02                                 F               0         Blade 1 Z translation displacement, node 13, m
        157    8.045E+00                                 F               0         Blade 1 X translation displacement, node 14, m
        158    4.122E+01                                 F               0         Blade 1 Y translation displacement, node 14, m
        159   -1.136E+02                                 F               0         Blade 1 Z translation displacement, node 14, m
        160    7.009E+00                                 F               0         Blade 1 X translation displacement, node 15, m
        161    4.396E+01                                 F               0         Blade 1 Y translation displacement, node 15, m
        162   -1.201E+02                                 F               0         Blade 1 Z translation displacement, node 15, m
        163    5.974E+00                                 F               0         Blade 1 X translation displacement, node 16, m
        164    4.670E+01                                 F               0         Blade 1 Y translation displacement, node 16, m
        165   -1.266E+02                                 F               0         Blade 1 Z translation displacement, node 16, m
        166    4.939E+00                                 F               0         Blade 1 X translation displacement, node 17, m
        167    4.945E+01                                 F               0         Blade 1 Y translation displacement, node 17, m
        168   -1.331E+02                                 F               0         Blade 1 Z translation displacement, node 17, m
        169    3.904E+00                                 F               0         Blade 1 X translation displacement, node 18, m
        170    5.219E+01                                 F               0         Blade 1 Y translation displacement, node 18, m
        171   -1.396E+02                                 F               0         Blade 1 Z translation displacement, node 18, m
        172    2.868E+00                                 F               0         Blade 1 X translation displacement, node 19, m
        173    5.494E+01                                 F               0         Blade 1 Y translation displacement, node 19, m
        174   -1.461E+02                                 F               0         Blade 1 Z translation displacement, node 19, m
        175    1.833E+00                                 F               0         Blade 1 X translation displacement, node 20, m
        176    5.768E+01                                 F               0         Blade 1 Y translation displacement, node 20, m
        177   -1.526E+02                                 F               0         Blade 1 Z translation displacement, node 20, m
        178    7.980E-01                                 F               0         Blade 1 X translation displacement, node 21, m
        179    6.042E+01                                 F               0         Blade 1 Y translation displacement, node 21, m
        180   -1.591E+02                                 F               0         Blade 1 Z translation displacement, node 21, m
        181   -2.374E-01                                 F               0         Blade 1 X translation displacement, node 22, m
        182    6.317E+01                                 F               0         Blade 1 Y translation displacement, node 22, m
        183   -1.656E+02                                 F               0         Blade 1 Z translation displacement, node 22, m
        184   -1.273E+00                                 F               0         Blade 1 X translation displacement, node 23, m
        185    6.591E+01                                 F               0         Blade 1 Y translation displacement, node 23, m
        186   -1.721E+02                                 F               0         Blade 1 Z translation displacement, node 23, m
        187   -2.308E+00                                 F               0         Blade 1 X translation displacement, node 24, m
        188    6.865E+01                                 F               0         Blade 1 Y translation displacement, node 24, m
        189   -1.786E+02                                 F               0         Blade 1 Z translation displacement, node 24, m
        190   -3.343E+00                                 F               0         Blade 1 X translation displacement, node 25, m
        191    7.140E+01                                 F               0         Blade 1 Y translation displacement, node 25, m
        192   -1.851E+02                                 F               0         Blade 1 Z translation displacement, node 25, m
        193   -4.378E+00                                 F               0         Blade 1 X translation displacement, node 26, m
        194    7.414E+01                                 F               0         Blade 1 Y translation displacement, node 26, m
        195   -1.916E+02                                 F               0         Blade 1 Z translation displacement, node 26, m
        196   -5.414E+00                                 F               0         Blade 1 X translation displacement, node 27, m
        197    7.689E+01                                 F               0         Blade 1 Y translation displacement, node 27, m
        198   -1.981E+02                                 F               0         Blade 1 Z translation displacement, node 27, m
        199   -6.291E+00                                 F               0         Blade 1 X translation displacement, node 28, m
        200    7.921E+01                                 F               0         Blade 1 Y translation displacement, node 28, m
        201   -2.036E+02                                 F               0         Blade 1 Z translation displacement, node 28, m
        202    9.248E-01,  3.521E-01,  1.443E-01         F               0         Blade 1 X orientation angle, node 1, rad
        203    3.438E-01, -6.105E-01, -7.135E-01         F               0         Blade 1 Y orientation angle, node 1, rad
        204   -1.631E-01,  7.094E-01, -6.856E-01         F               0         Blade 1 Z orientation angle, node 1, rad
        205    9.248E-01,  3.521E-01,  1.443E-01         F               0         Blade 1 X orientation angle, node 2, rad
        206    3.438E-01, -6.105E-01, -7.135E-01         F               0         Blade 1 Y orientation angle, node 2, rad
        207   -1.631E-01,  7.094E-01, -6.856E-01         F               0         Blade 1 Z orientation angle, node 2, rad
        208    9.799E-01,  1.974E-01, -2.890E-02         F               0         Blade 1 X orientation angle, node 3, rad
        209    1.148E-01, -6.765E-01, -7.274E-01         F               0         Blade 1 Y orientation angle, node 3, rad
        210   -1.631E-01,  7.094E-01, -6.856E-01         F               0         Blade 1 Z orientation angle, node 3, rad
        211    9.839E-01,  1.687E-01, -5.958E-02         F               0         Blade 1 X orientation angle, node 4, rad
        212    7.337E-02, -6.843E-01, -7.255E-01         F               0         Blade 1 Y orientation angle, node 4, rad
        213   -1.631E-01,  7.094E-01, -6.856E-01         F               0         Blade 1 Z orientation angle, node 4, rad
        214    9.858E-01,  1.459E-01, -8.361E-02         F               0         Blade 1 X orientation angle, node 5, rad
        215    4.071E-02, -6.895E-01, -7.231E-01         F               0         Blade 1 Y orientation angle, node 5, rad
        216   -1.631E-01,  7.094E-01, -6.856E-01         F               0         Blade 1 Z orientation angle, node 5, rad
        217    9.865E-01,  1.275E-01, -1.028E-01         F               0         Blade 1 X orientation angle, node 6, rad
        218    1.454E-02, -6.931E-01, -7.207E-01         F               0         Blade 1 Y orientation angle, node 6, rad
        219   -1.631E-01,  7.094E-01, -6.856E-01         F               0         Blade 1 Z orientation angle, node 6, rad
        220    9.866E-01,  1.124E-01, -1.185E-01         F               0         Blade 1 X orientation angle, node 7, rad
        221   -6.981E-03, -6.957E-01, -7.183E-01         F               0         Blade 1 Y orientation angle, node 7, rad
        222   -1.631E-01,  7.094E-01, -6.856E-01         F               0         Blade 1 Z orientation angle, node 7, rad
        223    9.863E-01,  9.974E-02, -1.315E-01         F               0         Blade 1 X orientation angle, node 8, rad
        224   -2.489E-02, -6.977E-01, -7.160E-01         F               0         Blade 1 Y orientation angle, node 8, rad
        225   -1.631E-01,  7.094E-01, -6.856E-01         F               0         Blade 1 Z orientation angle, node 8, rad
        226    9.858E-01,  8.902E-02, -1.425E-01         F               0         Blade 1 X orientation angle, node 9, rad
        227   -4.003E-02, -6.991E-01, -7.139E-01         F               0         Blade 1 Y orientation angle, node 9, rad