
Linearized model: Predictions were generated on 12-Feb-2024 at 18:31:58 using OpenFAST, compiled as a 64-bit application using single precision at commit v3.5.1
 linked with  NWTC Subroutine Library; ElastoDyn; InflowWind; AeroDyn; ServoDyn; HydroDyn; MAP++ (<1.20.10>, <Oct-20-2023>)

Description from the FAST input file: CCT-9 Campign 4 model. Input files to be run with OpenFAST 3.5.0. GitHub branch from Lu Wang (https://github.com/luwang00/openfast/tree/dev) compiled on March 7, 2023.

Simulation information:
   Simulation time:                  1008.4500 s
   Rotor Speed:                         1.0473 rad/s
   Azimuth:                             2.2284 rad
   Wind Speed:                         12.0000 m/s
   Number of continuous states:         0
   Number of discrete states:           0
   Number of constraint states:         0
   Number of inputs:                  303
   Number of outputs:                   1
   Jacobians included in this file?    No

Order of inputs:
     Column   Operating Point                     Rotating Frame? Derivative Order Description
   ---------- ---------------                     --------------- ---------------- -----------
          1   -1.080E+01                                 F               0         X-component position of node 1 (hub), m
          2    0.000E+00                                 F               0         Y-component position of node 1 (hub), m
          3    1.497E+02                                 F               0         Z-component position of node 1 (hub), m
          4    2.348E+01                                 F               0         X-component position of node 2 (blade 1, node 1), m
          5   -1.111E+01                                 F               0         Y-component position of node 2 (blade 1, node 1), m
          6    1.458E+02                                 F               0         Z-component position of node 2 (blade 1, node 1), m
          7    2.328E+01                                 F               0         X-component position of node 3 (blade 1, node 2), m
          8   -1.213E+01                                 F               0         Y-component position of node 3 (blade 1, node 2), m
          9    1.450E+02                                 F               0         Z-component position of node 3 (blade 1, node 2), m
         10    2.060E+01                                 F               0         X-component position of node 4 (blade 1, node 3), m
         11   -2.602E+01                                 F               0         Y-component position of node 4 (blade 1, node 3), m
         12    1.336E+02                                 F               0         Z-component position of node 4 (blade 1, node 3), m
         13    2.003E+01                                 F               0         X-component position of node 5 (blade 1, node 4), m
         14   -2.898E+01                                 F               0         Y-component position of node 5 (blade 1, node 4), m
         15    1.312E+02                                 F               0         Z-component position of node 5 (blade 1, node 4), m
         16    1.946E+01                                 F               0         X-component position of node 6 (blade 1, node 5), m
         17   -3.194E+01                                 F               0         Y-component position of node 6 (blade 1, node 5), m
         18    1.288E+02                                 F               0         Z-component position of node 6 (blade 1, node 5), m
         19    1.889E+01                                 F               0         X-component position of node 7 (blade 1, node 6), m
         20   -3.490E+01                                 F               0         Y-component position of node 7 (blade 1, node 6), m
         21    1.263E+02                                 F               0         Z-component position of node 7 (blade 1, node 6), m
         22    1.832E+01                                 F               0         X-component position of node 8 (blade 1, node 7), m
         23   -3.786E+01                                 F               0         Y-component position of node 8 (blade 1, node 7), m
         24    1.239E+02                                 F               0         Z-component position of node 8 (blade 1, node 7), m
         25    1.774E+01                                 F               0         X-component position of node 9 (blade 1, node 8), m
         26   -4.082E+01                                 F               0         Y-component position of node 9 (blade 1, node 8), m
         27    1.215E+02                                 F               0         Z-component position of node 9 (blade 1, node 8), m
         28    1.717E+01                                 F               0         X-component position of node 10 (blade 1, node 9), m
         29   -4.378E+01                                 F               0         Y-component position of node 10 (blade 1, node 9), m
         30    1.191E+02                                 F               0         Z-component position of node 10 (blade 1, node 9), m
         31    1.660E+01                                 F               0         X-component position of node 11 (blade 1, node 10), m
         32   -4.674E+01                                 F               0         Y-component position of node 11 (blade 1, node 10), m
         33    1.166E+02                                 F               0         Z-component position of node 11 (blade 1, node 10), m
         34    1.603E+01                                 F               0         X-component position of node 12 (blade 1, node 11), m
         35   -4.970E+01                                 F               0         Y-component position of node 12 (blade 1, node 11), m
         36    1.142E+02                                 F               0         Z-component position of node 12 (blade 1, node 11), m
         37    1.546E+01                                 F               0         X-component position of node 13 (blade 1, node 12), m
         38   -5.266E+01                                 F               0         Y-component position of node 13 (blade 1, node 12), m
         39    1.118E+02                                 F               0         Z-component position of node 13 (blade 1, node 12), m
         40    1.489E+01                                 F               0         X-component position of node 14 (blade 1, node 13), m
         41   -5.562E+01                                 F               0         Y-component position of node 14 (blade 1, node 13), m
         42    1.094E+02                                 F               0         Z-component position of node 14 (blade 1, node 13), m
         43    1.432E+01                                 F               0         X-component position of node 15 (blade 1, node 14), m
         44   -5.858E+01                                 F               0         Y-component position of node 15 (blade 1, node 14), m
         45    1.070E+02                                 F               0         Z-component position of node 15 (blade 1, node 14), m
         46    1.375E+01                                 F               0         X-component position of node 16 (blade 1, node 15), m
         47   -6.154E+01                                 F               0         Y-component position of node 16 (blade 1, node 15), m
         48    1.045E+02                                 F               0         Z-component position of node 16 (blade 1, node 15), m
         49    1.317E+01                                 F               0         X-component position of node 17 (blade 1, node 16), m
         50   -6.450E+01                                 F               0         Y-component position of node 17 (blade 1, node 16), m
         51    1.021E+02                                 F               0         Z-component position of node 17 (blade 1, node 16), m
         52    1.260E+01                                 F               0         X-component position of node 18 (blade 1, node 17), m
         53   -6.746E+01                                 F               0         Y-component position of node 18 (blade 1, node 17), m
         54    9.968E+01                                 F               0         Z-component position of node 18 (blade 1, node 17), m
         55    1.203E+01                                 F               0         X-component position of node 19 (blade 1, node 18), m
         56   -7.042E+01                                 F               0         Y-component position of node 19 (blade 1, node 18), m
         57    9.726E+01                                 F               0         Z-component position of node 19 (blade 1, node 18), m
         58    1.146E+01                                 F               0         X-component position of node 20 (blade 1, node 19), m
         59   -7.338E+01                                 F               0         Y-component position of node 20 (blade 1, node 19), m
         60    9.484E+01                                 F               0         Z-component position of node 20 (blade 1, node 19), m
         61    1.089E+01                                 F               0         X-component position of node 21 (blade 1, node 20), m
         62   -7.634E+01                                 F               0         Y-component position of node 21 (blade 1, node 20), m
         63    9.241E+01                                 F               0         Z-component position of node 21 (blade 1, node 20), m
         64    1.032E+01                                 F               0         X-component position of node 22 (blade 1, node 21), m
         65   -7.930E+01                                 F               0         Y-component position of node 22 (blade 1, node 21), m
         66    8.999E+01                                 F               0         Z-component position of node 22 (blade 1, node 21), m
         67    9.748E+00                                 F               0         X-component position of node 23 (blade 1, node 22), m
         68   -8.226E+01                                 F               0         Y-component position of node 23 (blade 1, node 22), m
         69    8.757E+01                                 F               0         Z-component position of node 23 (blade 1, node 22), m
         70    9.177E+00                                 F               0         X-component position of node 24 (blade 1, node 23), m
         71   -8.522E+01                                 F               0         Y-component position of node 24 (blade 1, node 23), m
         72    8.514E+01                                 F               0         Z-component position of node 24 (blade 1, node 23), m
         73    8.605E+00                                 F               0         X-component position of node 25 (blade 1, node 24), m
         74   -8.818E+01                                 F               0         Y-component position of node 25 (blade 1, node 24), m
         75    8.272E+01                                 F               0         Z-component position of node 25 (blade 1, node 24), m
         76    8.034E+00                                 F               0         X-component position of node 26 (blade 1, node 25), m
         77   -9.114E+01                                 F               0         Y-component position of node 26 (blade 1, node 25), m
         78    8.030E+01                                 F               0         Z-component position of node 26 (blade 1, node 25), m
         79    7.463E+00                                 F               0         X-component position of node 27 (blade 1, node 26), m
         80   -9.410E+01                                 F               0         Y-component position of node 27 (blade 1, node 26), m
         81    7.787E+01                                 F               0         Z-component position of node 27 (blade 1, node 26), m
         82    6.892E+00                                 F               0         X-component position of node 28 (blade 1, node 27), m
         83   -9.706E+01                                 F               0         Y-component position of node 28 (blade 1, node 27), m
         84    7.545E+01                                 F               0         Z-component position of node 28 (blade 1, node 27), m
         85    6.408E+00                                 F               0         X-component position of node 29 (blade 1, node 28), m
         86   -9.957E+01                                 F               0         Y-component position of node 29 (blade 1, node 28), m
         87    7.340E+01                                 F               0         Z-component position of node 29 (blade 1, node 28), m
         88    2.372E+01                                 F               0         X-component position of node 30 (blade 2, node 1), m
         89   -1.660E+00                                 F               0         Y-component position of node 30 (blade 2, node 1), m
         90    1.475E+02                                 F               0         Z-component position of node 30 (blade 2, node 1), m
         91    2.358E+01                                 F               0         X-component position of node 31 (blade 2, node 2), m
         92   -4.055E-01                                 F               0         Y-component position of node 31 (blade 2, node 2), m
         93    1.470E+02                                 F               0         Z-component position of node 31 (blade 2, node 2), m
         94    2.168E+01                                 F               0         X-component position of node 32 (blade 2, node 3), m
         95    1.665E+01                                 F               0         Y-component position of node 32 (blade 2, node 3), m
         96    1.411E+02                                 F               0         Z-component position of node 32 (blade 2, node 3), m
         97    2.128E+01                                 F               0         X-component position of node 33 (blade 2, node 4), m
         98    2.029E+01                                 F               0         Y-component position of node 33 (blade 2, node 4), m
         99    1.399E+02                                 F               0         Z-component position of node 33 (blade 2, node 4), m
        100    2.088E+01                                 F               0         X-component position of node 34 (blade 2, node 5), m
        101    2.392E+01                                 F               0         Y-component position of node 34 (blade 2, node 5), m
        102    1.386E+02                                 F               0         Z-component position of node 34 (blade 2, node 5), m
        103    2.047E+01                                 F               0         X-component position of node 35 (blade 2, node 6), m
        104    2.756E+01                                 F               0         Y-component position of node 35 (blade 2, node 6), m
        105    1.374E+02                                 F               0         Z-component position of node 35 (blade 2, node 6), m
        106    2.007E+01                                 F               0         X-component position of node 36 (blade 2, node 7), m
        107    3.119E+01                                 F               0         Y-component position of node 36 (blade 2, node 7), m
        108    1.361E+02                                 F               0         Z-component position of node 36 (blade 2, node 7), m
        109    1.967E+01                                 F               0         X-component position of node 37 (blade 2, node 8), m
        110    3.483E+01                                 F               0         Y-component position of node 37 (blade 2, node 8), m
        111    1.348E+02                                 F               0         Z-component position of node 37 (blade 2, node 8), m
        112    1.926E+01                                 F               0         X-component position of node 38 (blade 2, node 9), m
        113    3.846E+01                                 F               0         Y-component position of node 38 (blade 2, node 9), m
        114    1.336E+02                                 F               0         Z-component position of node 38 (blade 2, node 9), m
        115    1.886E+01                                 F               0         X-component position of node 39 (blade 2, node 10), m
        116    4.210E+01                                 F               0         Y-component position of node 39 (blade 2, node 10), m
        117    1.323E+02                                 F               0         Z-component position of node 39 (blade 2, node 10), m
        118    1.845E+01                                 F               0         X-component position of node 40 (blade 2, node 11), m
        119    4.573E+01                                 F               0         Y-component position of node 40 (blade 2, node 11), m
        120    1.311E+02                                 F               0         Z-component position of node 40 (blade 2, node 11), m
        121    1.805E+01                                 F               0         X-component position of node 41 (blade 2, node 12), m
        122    4.937E+01                                 F               0         Y-component position of node 41 (blade 2, node 12), m
        123    1.298E+02                                 F               0         Z-component position of node 41 (blade 2, node 12), m
        124    1.765E+01                                 F               0         X-component position of node 42 (blade 2, node 13), m
        125    5.300E+01                                 F               0         Y-component position of node 42 (blade 2, node 13), m
        126    1.286E+02                                 F               0         Z-component position of node 42 (blade 2, node 13), m
        127    1.724E+01                                 F               0         X-component position of node 43 (blade 2, node 14), m
        128    5.664E+01                                 F               0         Y-component position of node 43 (blade 2, node 14), m
        129    1.273E+02                                 F               0         Z-component position of node 43 (blade 2, node 14), m
        130    1.684E+01                                 F               0         X-component position of node 44 (blade 2, node 15), m
        131    6.027E+01                                 F               0         Y-component position of node 44 (blade 2, node 15), m
        132    1.260E+02                                 F               0         Z-component position of node 44 (blade 2, node 15), m
        133    1.644E+01                                 F               0         X-component position of node 45 (blade 2, node 16), m
        134    6.391E+01                                 F               0         Y-component position of node 45 (blade 2, node 16), m
        135    1.248E+02                                 F               0         Z-component position of node 45 (blade 2, node 16), m
        136    1.603E+01                                 F               0         X-component position of node 46 (blade 2, node 17), m
        137    6.754E+01                                 F               0         Y-component position of node 46 (blade 2, node 17), m
        138    1.235E+02                                 F               0         Z-component position of node 46 (blade 2, node 17), m
        139    1.563E+01                                 F               0         X-component position of node 47 (blade 2, node 18), m
        140    7.118E+01                                 F               0         Y-component position of node 47 (blade 2, node 18), m
        141    1.223E+02                                 F               0         Z-component position of node 47 (blade 2, node 18), m
        142    1.522E+01                                 F               0         X-component position of node 48 (blade 2, node 19), m
        143    7.481E+01                                 F               0         Y-component position of node 48 (blade 2, node 19), m
        144    1.210E+02                                 F               0         Z-component position of node 48 (blade 2, node 19), m
        145    1.482E+01                                 F               0         X-component position of node 49 (blade 2, node 20), m
        146    7.845E+01                                 F               0         Y-component position of node 49 (blade 2, node 20), m
        147    1.197E+02                                 F               0         Z-component position of node 49 (blade 2, node 20), m
        148    1.442E+01                                 F               0         X-component position of node 50 (blade 2, node 21), m
        149    8.208E+01                                 F               0         Y-component position of node 50 (blade 2, node 21), m
        150    1.185E+02                                 F               0         Z-component position of node 50 (blade 2, node 21), m
        151    1.401E+01                                 F               0         X-component position of node 51 (blade 2, node 22), m
        152    8.572E+01                                 F               0         Y-component position of node 51 (blade 2, node 22), m
        153    1.172E+02                                 F               0         Z-component position of node 51 (blade 2, node 22), m
        154    1.361E+01                                 F               0         X-component position of node 52 (blade 2, node 23), m
        155    8.935E+01                                 F               0         Y-component position of node 52 (blade 2, node 23), m
        156    1.160E+02                                 F               0         Z-component position of node 52 (blade 2, node 23), m
        157    1.321E+01                                 F               0         X-component position of node 53 (blade 2, node 24), m
        158    9.299E+01                                 F               0         Y-component position of node 53 (blade 2, node 24), m
        159    1.147E+02                                 F               0         Z-component position of node 53 (blade 2, node 24), m
        160    1.280E+01                                 F               0         X-component position of node 54 (blade 2, node 25), m
        161    9.662E+01                                 F               0         Y-component position of node 54 (blade 2, node 25), m
        162    1.135E+02                                 F               0         Z-component position of node 54 (blade 2, node 25), m
        163    1.240E+01                                 F               0         X-component position of node 55 (blade 2, node 26), m
        164    1.003E+02                                 F               0         Y-component position of node 55 (blade 2, node 26), m
        165    1.122E+02                                 F               0         Z-component position of node 55 (blade 2, node 26), m
        166    1.199E+01                                 F               0         X-component position of node 56 (blade 2, node 27), m
        167    1.039E+02                                 F               0         Y-component position of node 56 (blade 2, node 27), m
        168    1.109E+02                                 F               0         Z-component position of node 56 (blade 2, node 27), m
        169    1.165E+01                                 F               0         X-component position of node 57 (blade 2, node 28), m
        170    1.070E+02                                 F               0         Y-component position of node 57 (blade 2, node 28), m
        171    1.099E+02                                 F               0         Z-component position of node 57 (blade 2, node 28), m
        172    2.569E+01                                 F               0         X-component position of node 58 (blade 3, node 1), m
        173   -7.833E+00                                 F               0         Y-component position of node 58 (blade 3, node 1), m
        174    1.546E+02                                 F               0         Z-component position of node 58 (blade 3, node 1), m
        175    2.603E+01                                 F               0         X-component position of node 59 (blade 3, node 2), m
        176   -8.066E+00                                 F               0         Y-component position of node 59 (blade 3, node 2), m
        177    1.558E+02                                 F               0         Z-component position of node 59 (blade 3, node 2), m
        178    3.060E+01                                 F               0         X-component position of node 60 (blade 3, node 3), m
        179   -1.123E+01                                 F               0         Y-component position of node 60 (blade 3, node 3), m
        180    1.731E+02                                 F               0         Z-component position of node 60 (blade 3, node 3), m
        181    3.158E+01                                 F               0         X-component position of node 61 (blade 3, node 4), m
        182   -1.191E+01                                 F               0         Y-component position of node 61 (blade 3, node 4), m
        183    1.768E+02                                 F               0         Z-component position of node 61 (blade 3, node 4), m
        184    3.255E+01                                 F               0         X-component position of node 62 (blade 3, node 5), m
        185   -1.258E+01                                 F               0         Y-component position of node 62 (blade 3, node 5), m
        186    1.805E+02                                 F               0         Z-component position of node 62 (blade 3, node 5), m
        187    3.353E+01                                 F               0         X-component position of node 63 (blade 3, node 6), m
        188   -1.326E+01                                 F               0         Y-component position of node 63 (blade 3, node 6), m
        189    1.841E+02                                 F               0         Z-component position of node 63 (blade 3, node 6), m
        190    3.450E+01                                 F               0         X-component position of node 64 (blade 3, node 7), m
        191   -1.393E+01                                 F               0         Y-component position of node 64 (blade 3, node 7), m
        192    1.878E+02                                 F               0         Z-component position of node 64 (blade 3, node 7), m
        193    3.548E+01                                 F               0         X-component position of node 65 (blade 3, node 8), m
        194   -1.461E+01                                 F               0         Y-component position of node 65 (blade 3, node 8), m
        195    1.915E+02                                 F               0         Z-component position of node 65 (blade 3, node 8), m
        196    3.645E+01                                 F               0         X-component position of node 66 (blade 3, node 9), m
        197   -1.528E+01                                 F               0         Y-component position of node 66 (blade 3, node 9), m
        198    1.952E+02                                 F               0         Z-component position of node 66 (blade 3, node 9), m
        199    3.743E+01                                 F               0         X-component position of node 67 (blade 3, node 10), m
        200   -1.596E+01                                 F               0         Y-component position of node 67 (blade 3, node 10), m
        201    1.989E+02                                 F               0         Z-component position of node 67 (blade 3, node 10), m
        202    3.840E+01                                 F               0         X-component position of node 68 (blade 3, node 11), m
        203   -1.663E+01                                 F               0         Y-component position of node 68 (blade 3, node 11), m
        204    2.026E+02                                 F               0         Z-component position of node 68 (blade 3, node 11), m
        205    3.938E+01                                 F               0         X-component position of node 69 (blade 3, node 12), m
        206   -1.731E+01                                 F               0         Y-component position of node 69 (blade 3, node 12), m
        207    2.062E+02                                 F               0         Z-component position of node 69 (blade 3, node 12), m
        208    4.035E+01                                 F               0         X-component position of node 70 (blade 3, node 13), m
        209   -1.798E+01                                 F               0         Y-component position of node 70 (blade 3, node 13), m
        210    2.099E+02                                 F               0         Z-component position of node 70 (blade 3, node 13), m
        211    4.133E+01                                 F               0         X-component position of node 71 (blade 3, node 14), m