
Linearized model: Predictions were generated on 12-Feb-2024 at 18:31:58 using OpenFAST, compiled as a 64-bit application using single precision at commit v3.5.1
 linked with  NWTC Subroutine Library; ElastoDyn; InflowWind; AeroDyn; ServoDyn; HydroDyn; MAP++ (<1.20.10>, <Oct-20-2023>)

Description from the FAST input file: CCT-9 Campign 4 model. Input files to be run with OpenFAST 3.5.0. GitHub branch from Lu Wang (https://github.com/luwang00/openfast/tree/dev) compiled on March 7, 2023.

Simulation information:
   Simulation time:                  1001.5000 s
   Rotor Speed:                         1.0460 rad/s
   Azimuth:                             1.2362 rad
   Wind Speed:                         12.0000 m/s
   Number of continuous states:         0
   Number of discrete states:           0
   Number of constraint states:         0
   Number of inputs:                  303
   Number of outputs:                   1
   Jacobians included in this file?    No

Order of inputs:
     Column   Operating Point                     Rotating Frame? Derivative Order Description
   ---------- ---------------                     --------------- ---------------- -----------
          1   -1.080E+01                                 F               0         X-component position of node 1 (hub), m
          2    0.000E+00                                 F               0         Y-component position of node 1 (hub), m
          3    1.497E+02                                 F               0         Z-component position of node 1 (hub), m
          4    2.482E+01                                 F               0         X-component position of node 2 (blade 1, node 1), m
          5   -1.243E+01                                 F               0         Y-component position of node 2 (blade 1, node 1), m
          6    1.508E+02                                 F               0         Z-component position of node 2 (blade 1, node 1), m
          7    2.494E+01                                 F               0         X-component position of node 3 (blade 1, node 2), m
          8   -1.371E+01                                 F               0         Y-component position of node 3 (blade 1, node 2), m
          9    1.511E+02                                 F               0         Z-component position of node 3 (blade 1, node 2), m
         10    2.659E+01                                 F               0         X-component position of node 4 (blade 1, node 3), m
         11   -3.109E+01                                 F               0         Y-component position of node 4 (blade 1, node 3), m
         12    1.561E+02                                 F               0         Z-component position of node 4 (blade 1, node 3), m
         13    2.694E+01                                 F               0         X-component position of node 5 (blade 1, node 4), m
         14   -3.479E+01                                 F               0         Y-component position of node 5 (blade 1, node 4), m
         15    1.571E+02                                 F               0         Z-component position of node 5 (blade 1, node 4), m
         16    2.729E+01                                 F               0         X-component position of node 6 (blade 1, node 5), m
         17   -3.850E+01                                 F               0         Y-component position of node 6 (blade 1, node 5), m
         18    1.582E+02                                 F               0         Z-component position of node 6 (blade 1, node 5), m
         19    2.764E+01                                 F               0         X-component position of node 7 (blade 1, node 6), m
         20   -4.220E+01                                 F               0         Y-component position of node 7 (blade 1, node 6), m
         21    1.593E+02                                 F               0         Z-component position of node 7 (blade 1, node 6), m
         22    2.799E+01                                 F               0         X-component position of node 8 (blade 1, node 7), m
         23   -4.591E+01                                 F               0         Y-component position of node 8 (blade 1, node 7), m
         24    1.603E+02                                 F               0         Z-component position of node 8 (blade 1, node 7), m
         25    2.834E+01                                 F               0         X-component position of node 9 (blade 1, node 8), m
         26   -4.961E+01                                 F               0         Y-component position of node 9 (blade 1, node 8), m
         27    1.614E+02                                 F               0         Z-component position of node 9 (blade 1, node 8), m
         28    2.869E+01                                 F               0         X-component position of node 10 (blade 1, node 9), m
         29   -5.331E+01                                 F               0         Y-component position of node 10 (blade 1, node 9), m
         30    1.624E+02                                 F               0         Z-component position of node 10 (blade 1, node 9), m
         31    2.903E+01                                 F               0         X-component position of node 11 (blade 1, node 10), m
         32   -5.702E+01                                 F               0         Y-component position of node 11 (blade 1, node 10), m
         33    1.635E+02                                 F               0         Z-component position of node 11 (blade 1, node 10), m
         34    2.938E+01                                 F               0         X-component position of node 12 (blade 1, node 11), m
         35   -6.072E+01                                 F               0         Y-component position of node 12 (blade 1, node 11), m
         36    1.645E+02                                 F               0         Z-component position of node 12 (blade 1, node 11), m
         37    2.973E+01                                 F               0         X-component position of node 13 (blade 1, node 12), m
         38   -6.443E+01                                 F               0         Y-component position of node 13 (blade 1, node 12), m
         39    1.656E+02                                 F               0         Z-component position of node 13 (blade 1, node 12), m
         40    3.008E+01                                 F               0         X-component position of node 14 (blade 1, node 13), m
         41   -6.813E+01                                 F               0         Y-component position of node 14 (blade 1, node 13), m
         42    1.667E+02                                 F               0         Z-component position of node 14 (blade 1, node 13), m
         43    3.043E+01                                 F               0         X-component position of node 15 (blade 1, node 14), m
         44   -7.183E+01                                 F               0         Y-component position of node 15 (blade 1, node 14), m
         45    1.677E+02                                 F               0         Z-component position of node 15 (blade 1, node 14), m
         46    3.078E+01                                 F               0         X-component position of node 16 (blade 1, node 15), m
         47   -7.554E+01                                 F               0         Y-component position of node 16 (blade 1, node 15), m
         48    1.688E+02                                 F               0         Z-component position of node 16 (blade 1, node 15), m
         49    3.113E+01                                 F               0         X-component position of node 17 (blade 1, node 16), m
         50   -7.924E+01                                 F               0         Y-component position of node 17 (blade 1, node 16), m
         51    1.698E+02                                 F               0         Z-component position of node 17 (blade 1, node 16), m
         52    3.148E+01                                 F               0         X-component position of node 18 (blade 1, node 17), m
         53   -8.295E+01                                 F               0         Y-component position of node 18 (blade 1, node 17), m
         54    1.709E+02                                 F               0         Z-component position of node 18 (blade 1, node 17), m
         55    3.183E+01                                 F               0         X-component position of node 19 (blade 1, node 18), m
         56   -8.665E+01                                 F               0         Y-component position of node 19 (blade 1, node 18), m
         57    1.719E+02                                 F               0         Z-component position of node 19 (blade 1, node 18), m
         58    3.218E+01                                 F               0         X-component position of node 20 (blade 1, node 19), m
         59   -9.035E+01                                 F               0         Y-component position of node 20 (blade 1, node 19), m
         60    1.730E+02                                 F               0         Z-component position of node 20 (blade 1, node 19), m
         61    3.253E+01                                 F               0         X-component position of node 21 (blade 1, node 20), m
         62   -9.406E+01                                 F               0         Y-component position of node 21 (blade 1, node 20), m
         63    1.741E+02                                 F               0         Z-component position of node 21 (blade 1, node 20), m
         64    3.288E+01                                 F               0         X-component position of node 22 (blade 1, node 21), m
         65   -9.776E+01                                 F               0         Y-component position of node 22 (blade 1, node 21), m
         66    1.751E+02                                 F               0         Z-component position of node 22 (blade 1, node 21), m
         67    3.323E+01                                 F               0         X-component position of node 23 (blade 1, node 22), m
         68   -1.015E+02                                 F               0         Y-component position of node 23 (blade 1, node 22), m
         69    1.762E+02                                 F               0         Z-component position of node 23 (blade 1, node 22), m
         70    3.358E+01                                 F               0         X-component position of node 24 (blade 1, node 23), m
         71   -1.052E+02                                 F               0         Y-component position of node 24 (blade 1, node 23), m
         72    1.772E+02                                 F               0         Z-component position of node 24 (blade 1, node 23), m
         73    3.393E+01                                 F               0         X-component position of node 25 (blade 1, node 24), m
         74   -1.089E+02                                 F               0         Y-component position of node 25 (blade 1, node 24), m
         75    1.783E+02                                 F               0         Z-component position of node 25 (blade 1, node 24), m
         76    3.428E+01                                 F               0         X-component position of node 26 (blade 1, node 25), m
         77   -1.126E+02                                 F               0         Y-component position of node 26 (blade 1, node 25), m
         78    1.793E+02                                 F               0         Z-component position of node 26 (blade 1, node 25), m
         79    3.463E+01                                 F               0         X-component position of node 27 (blade 1, node 26), m
         80   -1.163E+02                                 F               0         Y-component position of node 27 (blade 1, node 26), m
         81    1.804E+02                                 F               0         Z-component position of node 27 (blade 1, node 26), m
         82    3.498E+01                                 F               0         X-component position of node 28 (blade 1, node 27), m
         83   -1.200E+02                                 F               0         Y-component position of node 28 (blade 1, node 27), m
         84    1.815E+02                                 F               0         Z-component position of node 28 (blade 1, node 27), m
         85    3.528E+01                                 F               0         X-component position of node 29 (blade 1, node 28), m
         86   -1.231E+02                                 F               0         Y-component position of node 29 (blade 1, node 28), m
         87    1.824E+02                                 F               0         Z-component position of node 29 (blade 1, node 28), m
         88    2.294E+01                                 F               0         X-component position of node 30 (blade 2, node 1), m
         89   -5.848E+00                                 F               0         Y-component position of node 30 (blade 2, node 1), m
         90    1.440E+02                                 F               0         Z-component position of node 30 (blade 2, node 1), m
         91    2.260E+01                                 F               0         X-component position of node 31 (blade 2, node 2), m
         92   -5.541E+00                                 F               0         Y-component position of node 31 (blade 2, node 2), m
         93    1.428E+02                                 F               0         Z-component position of node 31 (blade 2, node 2), m
         94    1.806E+01                                 F               0         X-component position of node 32 (blade 2, node 3), m
         95   -1.365E+00                                 F               0         Y-component position of node 32 (blade 2, node 3), m
         96    1.257E+02                                 F               0         Z-component position of node 32 (blade 2, node 3), m
         97    1.709E+01                                 F               0         X-component position of node 33 (blade 2, node 4), m
         98   -4.753E-01                                 F               0         Y-component position of node 33 (blade 2, node 4), m
         99    1.221E+02                                 F               0         Z-component position of node 33 (blade 2, node 4), m
        100    1.612E+01                                 F               0         X-component position of node 34 (blade 2, node 5), m
        101    4.146E-01                                 F               0         Y-component position of node 34 (blade 2, node 5), m
        102    1.184E+02                                 F               0         Z-component position of node 34 (blade 2, node 5), m
        103    1.516E+01                                 F               0         X-component position of node 35 (blade 2, node 6), m
        104    1.304E+00                                 F               0         Y-component position of node 35 (blade 2, node 6), m
        105    1.148E+02                                 F               0         Z-component position of node 35 (blade 2, node 6), m
        106    1.419E+01                                 F               0         X-component position of node 36 (blade 2, node 7), m
        107    2.194E+00                                 F               0         Y-component position of node 36 (blade 2, node 7), m
        108    1.112E+02                                 F               0         Z-component position of node 36 (blade 2, node 7), m
        109    1.322E+01                                 F               0         X-component position of node 37 (blade 2, node 8), m
        110    3.084E+00                                 F               0         Y-component position of node 37 (blade 2, node 8), m
        111    1.075E+02                                 F               0         Z-component position of node 37 (blade 2, node 8), m
        112    1.225E+01                                 F               0         X-component position of node 38 (blade 2, node 9), m
        113    3.974E+00                                 F               0         Y-component position of node 38 (blade 2, node 9), m
        114    1.039E+02                                 F               0         Z-component position of node 38 (blade 2, node 9), m
        115    1.128E+01                                 F               0         X-component position of node 39 (blade 2, node 10), m
        116    4.864E+00                                 F               0         Y-component position of node 39 (blade 2, node 10), m
        117    1.002E+02                                 F               0         Z-component position of node 39 (blade 2, node 10), m
        118    1.032E+01                                 F               0         X-component position of node 40 (blade 2, node 11), m
        119    5.753E+00                                 F               0         Y-component position of node 40 (blade 2, node 11), m
        120    9.661E+01                                 F               0         Z-component position of node 40 (blade 2, node 11), m
        121    9.348E+00                                 F               0         X-component position of node 41 (blade 2, node 12), m
        122    6.643E+00                                 F               0         Y-component position of node 41 (blade 2, node 12), m
        123    9.297E+01                                 F               0         Z-component position of node 41 (blade 2, node 12), m
        124    8.380E+00                                 F               0         X-component position of node 42 (blade 2, node 13), m
        125    7.533E+00                                 F               0         Y-component position of node 42 (blade 2, node 13), m
        126    8.934E+01                                 F               0         Z-component position of node 42 (blade 2, node 13), m
        127    7.412E+00                                 F               0         X-component position of node 43 (blade 2, node 14), m
        128    8.423E+00                                 F               0         Y-component position of node 43 (blade 2, node 14), m
        129    8.570E+01                                 F               0         Z-component position of node 43 (blade 2, node 14), m
        130    6.444E+00                                 F               0         X-component position of node 44 (blade 2, node 15), m
        131    9.313E+00                                 F               0         Y-component position of node 44 (blade 2, node 15), m
        132    8.206E+01                                 F               0         Z-component position of node 44 (blade 2, node 15), m
        133    5.476E+00                                 F               0         X-component position of node 45 (blade 2, node 16), m
        134    1.020E+01                                 F               0         Y-component position of node 45 (blade 2, node 16), m
        135    7.842E+01                                 F               0         Z-component position of node 45 (blade 2, node 16), m
        136    4.508E+00                                 F               0         X-component position of node 46 (blade 2, node 17), m
        137    1.109E+01                                 F               0         Y-component position of node 46 (blade 2, node 17), m
        138    7.479E+01                                 F               0         Z-component position of node 46 (blade 2, node 17), m
        139    3.541E+00                                 F               0         X-component position of node 47 (blade 2, node 18), m
        140    1.198E+01                                 F               0         Y-component position of node 47 (blade 2, node 18), m
        141    7.115E+01                                 F               0         Z-component position of node 47 (blade 2, node 18), m
        142    2.573E+00                                 F               0         X-component position of node 48 (blade 2, node 19), m
        143    1.287E+01                                 F               0         Y-component position of node 48 (blade 2, node 19), m
        144    6.751E+01                                 F               0         Z-component position of node 48 (blade 2, node 19), m
        145    1.605E+00                                 F               0         X-component position of node 49 (blade 2, node 20), m
        146    1.376E+01                                 F               0         Y-component position of node 49 (blade 2, node 20), m
        147    6.388E+01                                 F               0         Z-component position of node 49 (blade 2, node 20), m
        148    6.369E-01                                 F               0         X-component position of node 50 (blade 2, node 21), m
        149    1.465E+01                                 F               0         Y-component position of node 50 (blade 2, node 21), m
        150    6.024E+01                                 F               0         Z-component position of node 50 (blade 2, node 21), m
        151   -3.311E-01                                 F               0         X-component position of node 51 (blade 2, node 22), m
        152    1.554E+01                                 F               0         Y-component position of node 51 (blade 2, node 22), m
        153    5.660E+01                                 F               0         Z-component position of node 51 (blade 2, node 22), m
        154   -1.299E+00                                 F               0         X-component position of node 52 (blade 2, node 23), m
        155    1.643E+01                                 F               0         Y-component position of node 52 (blade 2, node 23), m
        156    5.296E+01                                 F               0         Z-component position of node 52 (blade 2, node 23), m
        157   -2.267E+00                                 F               0         X-component position of node 53 (blade 2, node 24), m
        158    1.732E+01                                 F               0         Y-component position of node 53 (blade 2, node 24), m
        159    4.933E+01                                 F               0         Z-component position of node 53 (blade 2, node 24), m
        160   -3.235E+00                                 F               0         X-component position of node 54 (blade 2, node 25), m
        161    1.821E+01                                 F               0         Y-component position of node 54 (blade 2, node 25), m
        162    4.569E+01                                 F               0         Z-component position of node 54 (blade 2, node 25), m
        163   -4.203E+00                                 F               0         X-component position of node 55 (blade 2, node 26), m
        164    1.910E+01                                 F               0         Y-component position of node 55 (blade 2, node 26), m
        165    4.205E+01                                 F               0         Z-component position of node 55 (blade 2, node 26), m
        166   -5.171E+00                                 F               0         X-component position of node 56 (blade 2, node 27), m
        167    1.999E+01                                 F               0         Y-component position of node 56 (blade 2, node 27), m
        168    3.841E+01                                 F               0         Z-component position of node 56 (blade 2, node 27), m
        169   -5.991E+00                                 F               0         X-component position of node 57 (blade 2, node 28), m
        170    2.074E+01                                 F               0         Y-component position of node 57 (blade 2, node 28), m
        171    3.533E+01                                 F               0         Z-component position of node 57 (blade 2, node 28), m
        172    2.521E+01                                 F               0         X-component position of node 58 (blade 3, node 1), m
        173   -3.092E+00                                 F               0         Y-component position of node 58 (blade 3, node 1), m
        174    1.529E+02                                 F               0         Z-component position of node 58 (blade 3, node 1), m
        175    2.542E+01                                 F               0         X-component position of node 59 (blade 3, node 2), m
        176   -2.121E+00                                 F               0         Y-component position of node 59 (blade 3, node 2), m
        177    1.538E+02                                 F               0         Z-component position of node 59 (blade 3, node 2), m
        178    2.832E+01                                 F               0         X-component position of node 60 (blade 3, node 3), m
        179    1.109E+01                                 F               0         Y-component position of node 60 (blade 3, node 3), m
        180    1.659E+02                                 F               0         Z-component position of node 60 (blade 3, node 3), m
        181    2.894E+01                                 F               0         X-component position of node 61 (blade 3, node 4), m
        182    1.390E+01                                 F               0         Y-component position of node 61 (blade 3, node 4), m
        183    1.685E+02                                 F               0         Z-component position of node 61 (blade 3, node 4), m
        184    2.956E+01                                 F               0         X-component position of node 62 (blade 3, node 5), m
        185    1.672E+01                                 F               0         Y-component position of node 62 (blade 3, node 5), m
        186    1.711E+02                                 F               0         Z-component position of node 62 (blade 3, node 5), m
        187    3.018E+01                                 F               0         X-component position of node 63 (blade 3, node 6), m
        188    1.953E+01                                 F               0         Y-component position of node 63 (blade 3, node 6), m
        189    1.737E+02                                 F               0         Z-component position of node 63 (blade 3, node 6), m
        190    3.079E+01                                 F               0         X-component position of node 64 (blade 3, node 7), m
        191    2.234E+01                                 F               0         Y-component position of node 64 (blade 3, node 7), m
        192    1.763E+02                                 F               0         Z-component position of node 64 (blade 3, node 7), m
        193    3.141E+01                                 F               0         X-component position of node 65 (blade 3, node 8), m
        194    2.516E+01                                 F               0         Y-component position of node 65 (blade 3, node 8), m
        195    1.788E+02                                 F               0         Z-component position of node 65 (blade 3, node 8), m
        196    3.203E+01                                 F               0         X-component position of node 66 (blade 3, node 9), m
        197    2.797E+01                                 F               0         Y-component position of node 66 (blade 3, node 9), m
        198    1.814E+02                                 F               0         Z-component position of node 66 (blade 3, node 9), m
        199    3.265E+01                                 F               0         X-component position of node 67 (blade 3, node 10), m
        200    3.079E+01                                 F               0         Y-component position of node 67 (blade 3, node 10), m
        201    1.840E+02                                 F               0         Z-component position of node 67 (blade 3, node 10), m
        202    3.327E+01                                 F               0         X-component position of node 68 (blade 3, node 11), m
        203    3.360E+01                                 F               0         Y-component position of node 68 (blade 3, node 11), m
        204    1.866E+02                                 F               0         Z-component position of node 68 (blade 3, node 11), m
        205    3.388E+01                                 F               0         X-component position of node 69 (blade 3, node 12), m
        206    3.641E+01                                 F               0         Y-component position of node 69 (blade 3, node 12), m
        207    1.892E+02                                 F               0         Z-component position of node 69 (blade 3, node 12), m
        208    3.450E+01                                 F               0         X-component position of node 70 (blade 3, node 13), m
        209    3.923E+01                                 F               0         Y-component position of node 70 (blade 3, node 13), m
        210    1.917E+02                                 F               0         Z-component position of node 70 (blade 3, node 13), m
        211    3.512E+01                                 F               0         X-component position of node 71 (blade 3, node 14), m