
Linearized model: Predictions were generated on 12-Feb-2024 at 18:31:58 using OpenFAST, compiled as a 64-bit application using single precision at commit v3.5.1
 linked with  NWTC Subroutine Library; ElastoDyn; InflowWind; AeroDyn; ServoDyn; HydroDyn; MAP++ (<1.20.10>, <Oct-20-2023>)

Description from the FAST input file: CCT-9 Campign 4 model. Input files to be run with OpenFAST 3.5.0. GitHub branch from Lu Wang (https://github.com/luwang00/openfast/tree/dev) compiled on March 7, 2023.

Simulation information:
   Simulation time:                  1001.0000 s
   Rotor Speed:                         1.0459 rad/s
   Azimuth:                             0.7132 rad
   Wind Speed:                         12.0000 m/s
   Number of continuous states:        14
   Number of discrete states:           0
   Number of constraint states:         0
   Number of inputs:                 1890
   Number of outputs:                  25
   Jacobians included in this file?    No

Order of continuous states:
   Row/Column Operating Point                     Rotating Frame? Derivative Order Description
   ---------- ---------------                     --------------- ---------------- -----------
          1    1.242E+01                                 F               2         Platform horizontal surge translation DOF (internal DOF index = DOF_Sg), m
          2   -2.305E-01                                 F               2         Platform horizontal sway translation DOF (internal DOF index = DOF_Sw), m
          3   -2.491E-01                                 F               2         Platform vertical heave translation DOF (internal DOF index = DOF_Hv), m
          4    4.624E-02                                 F               2         Platform roll tilt rotation DOF (internal DOF index = DOF_R), rad
          5    1.525E-01                                 F               2         Platform pitch tilt rotation DOF (internal DOF index = DOF_P), rad
          6    1.130E-02                                 F               2         Platform yaw rotation DOF (internal DOF index = DOF_Y), rad
          7    5.426E+00                                 F               2         Variable speed generator DOF (internal DOF index = DOF_GeAz), rad
          8   -3.169E-04                                 F               2         First time derivative of Platform horizontal surge translation DOF (internal DOF index = DOF_Sg), m/s
          9    4.204E-04                                 F               2         First time derivative of Platform horizontal sway translation DOF (internal DOF index = DOF_Sw), m/s
         10   -1.926E-03                                 F               2         First time derivative of Platform vertical heave translation DOF (internal DOF index = DOF_Hv), m/s
         11    3.694E-04                                 F               2         First time derivative of Platform roll tilt rotation DOF (internal DOF index = DOF_R), rad/s
         12   -4.039E-05                                 F               2         First time derivative of Platform pitch tilt rotation DOF (internal DOF index = DOF_P), rad/s
         13   -1.921E-05                                 F               2         First time derivative of Platform yaw rotation DOF (internal DOF index = DOF_Y), rad/s
         14    1.046E+00                                 F               2         First time derivative of Variable speed generator DOF (internal DOF index = DOF_GeAz), rad/s

Order of continuous state derivatives:
   Row/Column Operating Point                     Rotating Frame? Derivative Order Description
   ---------- ---------------                     --------------- ---------------- -----------
          1   -3.169E-04                                 F               2         First time derivative of Platform horizontal surge translation DOF (internal DOF index = DOF_Sg), m/s
          2    4.204E-04                                 F               2         First time derivative of Platform horizontal sway translation DOF (internal DOF index = DOF_Sw), m/s
          3   -1.926E-03                                 F               2         First time derivative of Platform vertical heave translation DOF (internal DOF index = DOF_Hv), m/s
          4    3.694E-04                                 F               2         First time derivative of Platform roll tilt rotation DOF (internal DOF index = DOF_R), rad/s
          5   -4.039E-05                                 F               2         First time derivative of Platform pitch tilt rotation DOF (internal DOF index = DOF_P), rad/s
          6   -1.921E-05                                 F               2         First time derivative of Platform yaw rotation DOF (internal DOF index = DOF_Y), rad/s
          7    1.046E+00                                 F               2         First time derivative of Variable speed generator DOF (internal DOF index = DOF_GeAz), rad/s
          8    2.256E-04                                 F               2         First time derivative of First time derivative of Platform horizontal surge translation DOF (internal DOF index = DOF_Sg), m/s/s
          9    3.490E-04                                 F               2         First time derivative of First time derivative of Platform horizontal sway translation DOF (internal DOF index = DOF_Sw), m/s/s
         10    1.733E-03                                 F               2         First time derivative of First time derivative of Platform vertical heave translation DOF (internal DOF index = DOF_Hv), m/s/s
         11   -1.674E-04                                 F               2         First time derivative of First time derivative of Platform roll tilt rotation DOF (internal DOF index = DOF_R), rad/s/s
         12    1.926E-06                                 F               2         First time derivative of First time derivative of Platform pitch tilt rotation DOF (internal DOF index = DOF_P), rad/s/s
         13    5.200E-05                                 F               2         First time derivative of First time derivative of Platform yaw rotation DOF (internal DOF index = DOF_Y), rad/s/s
         14    1.720E-04                                 F               2         First time derivative of First time derivative of Variable speed generator DOF (internal DOF index = DOF_GeAz), rad/s/s

Order of inputs:
     Column   Operating Point                     Rotating Frame? Derivative Order Description
   ---------- ---------------                     --------------- ---------------- -----------
          1    1.339E+02                                 F               0         Blade 1 X force, node 1, N
          2    1.268E+02                                 F               0         Blade 1 Y force, node 1, N
          3    8.656E+01                                 F               0         Blade 1 Z force, node 1, N
          4    4.900E+02                                 F               0         Blade 1 X force, node 2, N
          5    2.276E+02                                 F               0         Blade 1 Y force, node 2, N
          6    8.537E+01                                 F               0         Blade 1 Z force, node 2, N
          7    5.826E+02                                 F               0         Blade 1 X force, node 3, N
          8    1.659E+02                                 F               0         Blade 1 Y force, node 3, N
          9   -1.033E+00                                 F               0         Blade 1 Z force, node 3, N
         10    7.281E+02                                 F               0         Blade 1 X force, node 4, N
         11    1.335E+02                                 F               0         Blade 1 Y force, node 4, N
         12   -7.365E+01                                 F               0         Blade 1 Z force, node 4, N
         13    8.736E+02                                 F               0         Blade 1 X force, node 5, N
         14    1.010E+02                                 F               0         Blade 1 Y force, node 5, N
         15   -1.463E+02                                 F               0         Blade 1 Z force, node 5, N
         16    1.019E+03                                 F               0         Blade 1 X force, node 6, N
         17    6.859E+01                                 F               0         Blade 1 Y force, node 6, N
         18   -2.189E+02                                 F               0         Blade 1 Z force, node 6, N
         19    1.165E+03                                 F               0         Blade 1 X force, node 7, N
         20    3.615E+01                                 F               0         Blade 1 Y force, node 7, N
         21   -2.915E+02                                 F               0         Blade 1 Z force, node 7, N
         22    1.310E+03                                 F               0         Blade 1 X force, node 8, N
         23    3.704E+00                                 F               0         Blade 1 Y force, node 8, N
         24   -3.641E+02                                 F               0         Blade 1 Z force, node 8, N
         25    1.456E+03                                 F               0         Blade 1 X force, node 9, N
         26   -2.874E+01                                 F               0         Blade 1 Y force, node 9, N
         27   -4.367E+02                                 F               0         Blade 1 Z force, node 9, N
         28    1.601E+03                                 F               0         Blade 1 X force, node 10, N
         29   -6.118E+01                                 F               0         Blade 1 Y force, node 10, N
         30   -5.093E+02                                 F               0         Blade 1 Z force, node 10, N
         31    1.746E+03                                 F               0         Blade 1 X force, node 11, N
         32   -9.363E+01                                 F               0         Blade 1 Y force, node 11, N
         33   -5.820E+02                                 F               0         Blade 1 Z force, node 11, N
         34    1.892E+03                                 F               0         Blade 1 X force, node 12, N
         35   -1.261E+02                                 F               0         Blade 1 Y force, node 12, N
         36   -6.546E+02                                 F               0         Blade 1 Z force, node 12, N
         37    2.037E+03                                 F               0         Blade 1 X force, node 13, N
         38   -1.585E+02                                 F               0         Blade 1 Y force, node 13, N
         39   -7.272E+02                                 F               0         Blade 1 Z force, node 13, N
         40    2.183E+03                                 F               0         Blade 1 X force, node 14, N
         41   -1.910E+02                                 F               0         Blade 1 Y force, node 14, N
         42   -7.998E+02                                 F               0         Blade 1 Z force, node 14, N
         43    2.328E+03                                 F               0         Blade 1 X force, node 15, N
         44   -2.234E+02                                 F               0         Blade 1 Y force, node 15, N
         45   -8.724E+02                                 F               0         Blade 1 Z force, node 15, N
         46    2.474E+03                                 F               0         Blade 1 X force, node 16, N
         47   -2.558E+02                                 F               0         Blade 1 Y force, node 16, N
         48   -9.450E+02                                 F               0         Blade 1 Z force, node 16, N
         49    3.041E+03                                 F               0         Blade 1 X force, node 17, N
         50   -3.327E+02                                 F               0         Blade 1 Y force, node 17, N
         51   -1.180E+03                                 F               0         Blade 1 Z force, node 17, N
         52    2.348E+03                                 F               0         Blade 1 X force, node 18, N
         53   -2.474E+02                                 F               0         Blade 1 Y force, node 18, N
         54   -9.015E+02                                 F               0         Blade 1 Z force, node 18, N
         55    2.922E+03                                 F               0         Blade 1 X force, node 19, N
         56   -2.877E+02                                 F               0         Blade 1 Y force, node 19, N
         57   -1.102E+03                                 F               0         Blade 1 Z force, node 19, N
         58    2.522E+03                                 F               0         Blade 1 X force, node 20, N
         59   -2.329E+02                                 F               0         Blade 1 Y force, node 20, N
         60   -9.361E+02                                 F               0         Blade 1 Z force, node 20, N
         61    3.777E+03                                 F               0         Blade 1 X force, node 21, N
         62   -3.227E+02                                 F               0         Blade 1 Y force, node 21, N
         63   -1.376E+03                                 F               0         Blade 1 Z force, node 21, N
         64    3.377E+03                                 F               0         Blade 1 X force, node 22, N
         65   -2.658E+02                                 F               0         Blade 1 Y force, node 22, N
         66   -1.208E+03                                 F               0         Blade 1 Z force, node 22, N
         67    3.507E+03                                 F               0         Blade 1 X force, node 23, N
         68   -2.559E+02                                 F               0         Blade 1 Y force, node 23, N
         69   -1.235E+03                                 F               0         Blade 1 Z force, node 23, N
         70    3.701E+03                                 F               0         Blade 1 X force, node 24, N
         71   -2.501E+02                                 F               0         Blade 1 Y force, node 24, N
         72   -1.284E+03                                 F               0         Blade 1 Z force, node 24, N
         73    3.830E+03                                 F               0         Blade 1 X force, node 25, N
         74   -2.389E+02                                 F               0         Blade 1 Y force, node 25, N
         75   -1.309E+03                                 F               0         Blade 1 Z force, node 25, N
         76    3.979E+03                                 F               0         Blade 1 X force, node 26, N
         77   -2.289E+02                                 F               0         Blade 1 Y force, node 26, N
         78   -1.341E+03                                 F               0         Blade 1 Z force, node 26, N
         79    4.811E+03                                 F               0         Blade 1 X force, node 27, N
         80   -2.538E+02                                 F               0         Blade 1 Y force, node 27, N
         81   -1.599E+03                                 F               0         Blade 1 Z force, node 27, N
         82    3.596E+03                                 F               0         Blade 1 X force, node 28, N
         83   -1.735E+02                                 F               0         Blade 1 Y force, node 28, N
         84   -1.179E+03                                 F               0         Blade 1 Z force, node 28, N
         85    4.428E+03                                 F               0         Blade 1 X force, node 29, N
         86   -1.975E+02                                 F               0         Blade 1 Y force, node 29, N
         87   -1.436E+03                                 F               0         Blade 1 Z force, node 29, N
         88    3.790E+03                                 F               0         Blade 1 X force, node 30, N
         89   -1.561E+02                                 F               0         Blade 1 Y force, node 30, N
         90   -1.217E+03                                 F               0         Blade 1 Z force, node 30, N
         91    5.514E+03                                 F               0         Blade 1 X force, node 31, N
         92   -2.058E+02                                 F               0         Blade 1 Y force, node 31, N
         93   -1.749E+03                                 F               0         Blade 1 Z force, node 31, N
         94    4.875E+03                                 F               0         Blade 1 X force, node 32, N
         95   -1.637E+02                                 F               0         Blade 1 Y force, node 32, N
         96   -1.529E+03                                 F               0         Blade 1 Z force, node 32, N
         97    5.022E+03                                 F               0         Blade 1 X force, node 33, N
         98   -1.520E+02                                 F               0         Blade 1 Y force, node 33, N
         99   -1.559E+03                                 F               0         Blade 1 Z force, node 33, N
        100    5.171E+03                                 F               0         Blade 1 X force, node 34, N
        101   -1.403E+02                                 F               0         Blade 1 Y force, node 34, N
        102   -1.589E+03                                 F               0         Blade 1 Z force, node 34, N
        103    5.320E+03                                 F               0         Blade 1 X force, node 35, N
        104   -1.282E+02                                 F               0         Blade 1 Y force, node 35, N
        105   -1.619E+03                                 F               0         Blade 1 Z force, node 35, N
        106    5.466E+03                                 F               0         Blade 1 X force, node 36, N
        107   -1.160E+02                                 F               0         Blade 1 Y force, node 36, N
        108   -1.648E+03                                 F               0         Blade 1 Z force, node 36, N
        109    6.570E+03                                 F               0         Blade 1 X force, node 37, N
        110   -1.204E+02                                 F               0         Blade 1 Y force, node 37, N
        111   -1.962E+03                                 F               0         Blade 1 Z force, node 37, N
        112    4.806E+03                                 F               0         Blade 1 X force, node 38, N
        113   -7.490E+01                                 F               0         Blade 1 Y force, node 38, N
        114   -1.423E+03                                 F               0         Blade 1 Z force, node 38, N
        115    5.911E+03                                 F               0         Blade 1 X force, node 39, N
        116   -7.899E+01                                 F               0         Blade 1 Y force, node 39, N
        117   -1.737E+03                                 F               0         Blade 1 Z force, node 39, N
        118    5.057E+03                                 F               0         Blade 1 X force, node 40, N
        119   -5.679E+01                                 F               0         Blade 1 Y force, node 40, N
        120   -1.475E+03                                 F               0         Blade 1 Z force, node 40, N
        121    7.210E+03                                 F               0         Blade 1 X force, node 41, N
        122   -6.358E+01                                 F               0         Blade 1 Y force, node 41, N
        123   -2.086E+03                                 F               0         Blade 1 Z force, node 41, N
        124    6.354E+03                                 F               0         Blade 1 X force, node 42, N
        125   -4.095E+01                                 F               0         Blade 1 Y force, node 42, N
        126   -1.824E+03                                 F               0         Blade 1 Z force, node 42, N
        127    6.500E+03                                 F               0         Blade 1 X force, node 43, N
        128   -2.801E+01                                 F               0         Blade 1 Y force, node 43, N
        129   -1.852E+03                                 F               0         Blade 1 Z force, node 43, N
        130    6.681E+03                                 F               0         Blade 1 X force, node 44, N
        131   -1.510E+01                                 F               0         Blade 1 Y force, node 44, N
        132   -1.890E+03                                 F               0         Blade 1 Z force, node 44, N
        133    6.756E+03                                 F               0         Blade 1 X force, node 45, N
        134   -1.895E+00                                 F               0         Blade 1 Y force, node 45, N
        135   -1.898E+03                                 F               0         Blade 1 Z force, node 45, N
        136    6.938E+03                                 F               0         Blade 1 X force, node 46, N
        137    1.118E+01                                 F               0         Blade 1 Y force, node 46, N
        138   -1.937E+03                                 F               0         Blade 1 Z force, node 46, N
        139    8.328E+03                                 F               0         Blade 1 X force, node 47, N
        140    2.958E+01                                 F               0         Blade 1 Y force, node 47, N
        141   -2.309E+03                                 F               0         Blade 1 Z force, node 47, N
        142    5.985E+03                                 F               0         Blade 1 X force, node 48, N
        143    3.233E+01                                 F               0         Blade 1 Y force, node 48, N
        144   -1.648E+03                                 F               0         Blade 1 Z force, node 48, N
        145    7.374E+03                                 F               0         Blade 1 X force, node 49, N
        146    5.096E+01                                 F               0         Blade 1 Y force, node 49, N
        147   -2.020E+03                                 F               0         Blade 1 Z force, node 49, N
        148    6.322E+03                                 F               0         Blade 1 X force, node 50, N
        149    5.301E+01                                 F               0         Blade 1 Y force, node 50, N
        150   -1.723E+03                                 F               0         Blade 1 Z force, node 50, N
        151    8.861E+03                                 F               0         Blade 1 X force, node 51, N
        152    8.903E+01                                 F               0         Blade 1 Y force, node 51, N
        153   -2.400E+03                                 F               0         Blade 1 Z force, node 51, N
        154    7.811E+03                                 F               0         Blade 1 X force, node 52, N
        155    9.112E+01                                 F               0         Blade 1 Y force, node 52, N
        156   -2.103E+03                                 F               0         Blade 1 Z force, node 52, N
        157    7.958E+03                                 F               0         Blade 1 X force, node 53, N
        158    1.045E+02                                 F               0         Blade 1 Y force, node 53, N
        159   -2.131E+03                                 F               0         Blade 1 Z force, node 53, N
        160    8.194E+03                                 F               0         Blade 1 X force, node 54, N
        161    1.193E+02                                 F               0         Blade 1 Y force, node 54, N
        162   -2.183E+03                                 F               0         Blade 1 Z force, node 54, N
        163    8.161E+03                                 F               0         Blade 1 X force, node 55, N
        164    1.302E+02                                 F               0         Blade 1 Y force, node 55, N
        165   -2.163E+03                                 F               0         Blade 1 Z force, node 55, N
        166    8.396E+03                                 F               0         Blade 1 X force, node 56, N
        167    1.451E+02                                 F               0         Blade 1 Y force, node 56, N
        168   -2.215E+03                                 F               0         Blade 1 Z force, node 56, N
        169    1.009E+04                                 F               0         Blade 1 X force, node 57, N
        170    1.883E+02                                 F               0         Blade 1 Y force, node 57, N
        171   -2.647E+03                                 F               0         Blade 1 Z force, node 57, N
        172    7.140E+03                                 F               0         Blade 1 X force, node 58, N
        173    1.427E+02                                 F               0         Blade 1 Y force, node 58, N
        174   -1.864E+03                                 F               0         Blade 1 Z force, node 58, N
        175    8.832E+03                                 F               0         Blade 1 X force, node 59, N
        176    1.861E+02                                 F               0         Blade 1 Y force, node 59, N
        177   -2.297E+03                                 F               0         Blade 1 Z force, node 59, N
        178    7.602E+03                                 F               0         Blade 1 X force, node 60, N
        179    1.683E+02                                 F               0         Blade 1 Y force, node 60, N
        180   -1.969E+03                                 F               0         Blade 1 Z force, node 60, N
        181    1.050E+04                                 F               0         Blade 1 X force, node 61, N
        182    2.451E+02                                 F               0         Blade 1 Y force, node 61, N
        183   -2.707E+03                                 F               0         Blade 1 Z force, node 61, N
        184    9.264E+03                                 F               0         Blade 1 X force, node 62, N
        185    2.275E+02                                 F               0         Blade 1 Y force, node 62, N
        186   -2.378E+03                                 F               0         Blade 1 Z force, node 62, N
        187    9.407E+03                                 F               0         Blade 1 X force, node 63, N
        188    2.413E+02                                 F               0         Blade 1 Y force, node 63, N
        189   -2.404E+03                                 F               0         Blade 1 Z force, node 63, N
        190    9.710E+03                                 F               0         Blade 1 X force, node 64, N
        191    2.595E+02                                 F               0         Blade 1 Y force, node 64, N
        192   -2.471E+03                                 F               0         Blade 1 Z force, node 64, N
        193    9.536E+03                                 F               0         Blade 1 X force, node 65, N
        194    2.647E+02                                 F               0         Blade 1 Y force, node 65, N
        195   -2.418E+03                                 F               0         Blade 1 Z force, node 65, N
        196    9.843E+03                                 F               0         Blade 1 X force, node 66, N
        197    2.829E+02                                 F               0         Blade 1 Y force, node 66, N
        198   -2.486E+03                                 F               0         Blade 1 Z force, node 66, N
        199    1.185E+04                                 F               0         Blade 1 X force, node 67, N
        200    3.529E+02                                 F               0         Blade 1 Y force, node 67, N
        201   -2.981E+03                                 F               0         Blade 1 Z force, node 67, N
        202    8.273E+03                                 F               0         Blade 1 X force, node 68, N
        203    2.546E+02                                 F               0         Blade 1 Y force, node 68, N
        204   -2.073E+03                                 F               0         Blade 1 Z force, node 68, N
        205    1.028E+04                                 F               0         Blade 1 X force, node 69, N
        206    3.247E+02                                 F               0         Blade 1 Y force, node 69, N
        207   -2.567E+03                                 F               0         Blade 1 Z force, node 69, N
        208    8.888E+03                                 F               0         Blade 1 X force, node 70, N
        209    2.881E+02                                 F               0         Blade 1 Y force, node 70, N
        210   -2.213E+03                                 F               0         Blade 1 Z force, node 70, N