
Linearized model: Predictions were generated on 12-Feb-2024 at 18:31:58 using OpenFAST, compiled as a 64-bit application using single precision at commit v3.5.1
 linked with  NWTC Subroutine Library; ElastoDyn; InflowWind; AeroDyn; ServoDyn; HydroDyn; MAP++ (<1.20.10>, <Oct-20-2023>)

Description from the FAST input file: CCT-9 Campign 4 model. Input files to be run with OpenFAST 3.5.0. GitHub branch from Lu Wang (https://github.com/luwang00/openfast/tree/dev) compiled on March 7, 2023.

Simulation information:
   Simulation time:                  1001.5000 s
   Rotor Speed:                         1.0460 rad/s
   Azimuth:                             1.2362 rad
   Wind Speed:                         12.0000 m/s
   Number of continuous states:         0
   Number of discrete states:           0
   Number of constraint states:         0
   Number of inputs:                 1746
   Number of outputs:                   4
   Jacobians included in this file?    No

Order of inputs:
     Column   Operating Point                     Rotating Frame? Derivative Order Description
   ---------- ---------------                     --------------- ---------------- -----------
          1    1.518E+01                                 F               0         Tower X translation displacement, node 1, m
          2   -1.055E+00                                 F               0         Tower Y translation displacement, node 1, m
          3   -4.784E-01                                 F               0         Tower Z translation displacement, node 1, m
          4    1.705E+01                                 F               0         Tower X translation displacement, node 2, m
          5   -1.611E+00                                 F               0         Tower Y translation displacement, node 2, m
          6   -6.324E-01                                 F               0         Tower Z translation displacement, node 2, m
          7    1.891E+01                                 F               0         Tower X translation displacement, node 3, m
          8   -2.166E+00                                 F               0         Tower Y translation displacement, node 3, m
          9   -7.863E-01                                 F               0         Tower Z translation displacement, node 3, m
         10    2.077E+01                                 F               0         Tower X translation displacement, node 4, m
         11   -2.722E+00                                 F               0         Tower Y translation displacement, node 4, m
         12   -9.403E-01                                 F               0         Tower Z translation displacement, node 4, m
         13    2.264E+01                                 F               0         Tower X translation displacement, node 5, m
         14   -3.278E+00                                 F               0         Tower Y translation displacement, node 5, m
         15   -1.094E+00                                 F               0         Tower Z translation displacement, node 5, m
         16    2.450E+01                                 F               0         Tower X translation displacement, node 6, m
         17   -3.834E+00                                 F               0         Tower Y translation displacement, node 6, m
         18   -1.248E+00                                 F               0         Tower Z translation displacement, node 6, m
         19    2.636E+01                                 F               0         Tower X translation displacement, node 7, m
         20   -4.389E+00                                 F               0         Tower Y translation displacement, node 7, m
         21   -1.402E+00                                 F               0         Tower Z translation displacement, node 7, m
         22    2.822E+01                                 F               0         Tower X translation displacement, node 8, m
         23   -4.945E+00                                 F               0         Tower Y translation displacement, node 8, m
         24   -1.556E+00                                 F               0         Tower Z translation displacement, node 8, m
         25    3.009E+01                                 F               0         Tower X translation displacement, node 9, m
         26   -5.501E+00                                 F               0         Tower Y translation displacement, node 9, m
         27   -1.710E+00                                 F               0         Tower Z translation displacement, node 9, m
         28    3.195E+01                                 F               0         Tower X translation displacement, node 10, m
         29   -6.056E+00                                 F               0         Tower Y translation displacement, node 10, m
         30   -1.864E+00                                 F               0         Tower Z translation displacement, node 10, m
         31    3.381E+01                                 F               0         Tower X translation displacement, node 11, m
         32   -6.612E+00                                 F               0         Tower Y translation displacement, node 11, m
         33   -2.018E+00                                 F               0         Tower Z translation displacement, node 11, m
         34    9.885E-01,  1.462E-02, -1.503E-01         F               0         Tower X orientation angle, node 1, rad
         35   -7.682E-03,  9.989E-01,  4.667E-02         F               0         Tower Y orientation angle, node 1, rad
         36    1.508E-01, -4.498E-02,  9.875E-01         F               0         Tower Z orientation angle, node 1, rad
         37    9.885E-01,  1.462E-02, -1.503E-01         F               0         Tower X orientation angle, node 2, rad
         38   -7.682E-03,  9.989E-01,  4.667E-02         F               0         Tower Y orientation angle, node 2, rad
         39    1.508E-01, -4.498E-02,  9.875E-01         F               0         Tower Z orientation angle, node 2, rad
         40    9.885E-01,  1.462E-02, -1.503E-01         F               0         Tower X orientation angle, node 3, rad
         41   -7.682E-03,  9.989E-01,  4.667E-02         F               0         Tower Y orientation angle, node 3, rad
         42    1.508E-01, -4.498E-02,  9.875E-01         F               0         Tower Z orientation angle, node 3, rad
         43    9.885E-01,  1.462E-02, -1.503E-01         F               0         Tower X orientation angle, node 4, rad
         44   -7.682E-03,  9.989E-01,  4.667E-02         F               0         Tower Y orientation angle, node 4, rad
         45    1.508E-01, -4.498E-02,  9.875E-01         F               0         Tower Z orientation angle, node 4, rad
         46    9.885E-01,  1.462E-02, -1.503E-01         F               0         Tower X orientation angle, node 5, rad
         47   -7.682E-03,  9.989E-01,  4.667E-02         F               0         Tower Y orientation angle, node 5, rad
         48    1.508E-01, -4.498E-02,  9.875E-01         F               0         Tower Z orientation angle, node 5, rad
         49    9.885E-01,  1.462E-02, -1.503E-01         F               0         Tower X orientation angle, node 6, rad
         50   -7.682E-03,  9.989E-01,  4.667E-02         F               0         Tower Y orientation angle, node 6, rad
         51    1.508E-01, -4.498E-02,  9.875E-01         F               0         Tower Z orientation angle, node 6, rad
         52    9.885E-01,  1.462E-02, -1.503E-01         F               0         Tower X orientation angle, node 7, rad
         53   -7.682E-03,  9.989E-01,  4.667E-02         F               0         Tower Y orientation angle, node 7, rad
         54    1.508E-01, -4.498E-02,  9.875E-01         F               0         Tower Z orientation angle, node 7, rad
         55    9.885E-01,  1.462E-02, -1.503E-01         F               0         Tower X orientation angle, node 8, rad
         56   -7.682E-03,  9.989E-01,  4.667E-02         F               0         Tower Y orientation angle, node 8, rad
         57    1.508E-01, -4.498E-02,  9.875E-01         F               0         Tower Z orientation angle, node 8, rad
         58    9.885E-01,  1.462E-02, -1.503E-01         F               0         Tower X orientation angle, node 9, rad
         59   -7.682E-03,  9.989E-01,  4.667E-02         F               0         Tower Y orientation angle, node 9, rad
         60    1.508E-01, -4.498E-02,  9.875E-01         F               0         Tower Z orientation angle, node 9, rad
         61    9.885E-01,  1.462E-02, -1.503E-01         F               0         Tower X orientation angle, node 10, rad
         62   -7.682E-03,  9.989E-01,  4.667E-02         F               0         Tower Y orientation angle, node 10, rad
         63    1.508E-01, -4.498E-02,  9.875E-01         F               0         Tower Z orientation angle, node 10, rad
         64    9.885E-01,  1.462E-02, -1.503E-01         F               0         Tower X orientation angle, node 11, rad
         65   -7.682E-03,  9.989E-01,  4.667E-02         F               0         Tower Y orientation angle, node 11, rad
         66    1.508E-01, -4.498E-02,  9.875E-01         F               0         Tower Z orientation angle, node 11, rad
         67   -8.805E-04                                 F               0         Tower X translation velocity, node 1, m/s
         68   -4.678E-03                                 F               0         Tower Y translation velocity, node 1, m/s
         69   -1.161E-03                                 F               0         Tower Z translation velocity, node 1, m/s
         70   -1.344E-03                                 F               0         Tower X translation velocity, node 2, m/s
         71   -8.182E-03                                 F               0         Tower Y translation velocity, node 2, m/s
         72   -1.250E-03                                 F               0         Tower Z translation velocity, node 2, m/s
         73   -1.807E-03                                 F               0         Tower X translation velocity, node 3, m/s
         74   -1.169E-02                                 F               0         Tower Y translation velocity, node 3, m/s
         75   -1.339E-03                                 F               0         Tower Z translation velocity, node 3, m/s
         76   -2.270E-03                                 F               0         Tower X translation velocity, node 4, m/s
         77   -1.519E-02                                 F               0         Tower Y translation velocity, node 4, m/s
         78   -1.428E-03                                 F               0         Tower Z translation velocity, node 4, m/s
         79   -2.734E-03                                 F               0         Tower X translation velocity, node 5, m/s
         80   -1.869E-02                                 F               0         Tower Y translation velocity, node 5, m/s
         81   -1.516E-03                                 F               0         Tower Z translation velocity, node 5, m/s
         82   -3.197E-03                                 F               0         Tower X translation velocity, node 6, m/s
         83   -2.220E-02                                 F               0         Tower Y translation velocity, node 6, m/s
         84   -1.605E-03                                 F               0         Tower Z translation velocity, node 6, m/s
         85   -3.660E-03                                 F               0         Tower X translation velocity, node 7, m/s
         86   -2.570E-02                                 F               0         Tower Y translation velocity, node 7, m/s
         87   -1.694E-03                                 F               0         Tower Z translation velocity, node 7, m/s
         88   -4.123E-03                                 F               0         Tower X translation velocity, node 8, m/s
         89   -2.921E-02                                 F               0         Tower Y translation velocity, node 8, m/s
         90   -1.783E-03                                 F               0         Tower Z translation velocity, node 8, m/s
         91   -4.587E-03                                 F               0         Tower X translation velocity, node 9, m/s
         92   -3.271E-02                                 F               0         Tower Y translation velocity, node 9, m/s
         93   -1.872E-03                                 F               0         Tower Z translation velocity, node 9, m/s
         94   -5.050E-03                                 F               0         Tower X translation velocity, node 10, m/s
         95   -3.621E-02                                 F               0         Tower Y translation velocity, node 10, m/s
         96   -1.961E-03                                 F               0         Tower Z translation velocity, node 10, m/s
         97   -5.513E-03                                 F               0         Tower X translation velocity, node 11, m/s
         98   -3.972E-02                                 F               0         Tower Y translation velocity, node 11, m/s
         99   -2.049E-03                                 F               0         Tower Z translation velocity, node 11, m/s
        100    3.512E+01                                 F               0         Hub X translation displacement, node 1, m
        101   -7.123E+00                                 F               0         Hub Y translation displacement, node 1, m
        102   -4.925E-01                                 F               0         Hub Z translation displacement, node 1, m
        103    9.674E-01,  1.925E-02, -2.527E-01         F               0         Hub X orientation angle, node 1, rad
        104    2.367E-01,  2.873E-01,  9.281E-01         F               0         Hub Y orientation angle, node 1, rad
        105    9.045E-02, -9.577E-01,  2.733E-01         F               0         Hub Z orientation angle, node 1, rad
        106    1.012E+00                                 F               0         Hub X rotation velocity, node 1, rad/s
        107    2.009E-02                                 F               0         Hub Y rotation velocity, node 1, rad/s
        108   -2.643E-01                                 F               0         Hub Z rotation velocity, node 1, rad/s
        109    9.599E-01,  1.072E-02, -2.801E-01         F               0         Blade root 1 X orientation angle, node 1, rad
        110    2.653E-01,  2.877E-01,  9.202E-01         F               0         Blade root 1 Y orientation angle, node 1, rad
        111    9.045E-02, -9.577E-01,  2.733E-01         F               0         Blade root 1 Z orientation angle, node 1, rad
        112    9.681E-01,  4.810E-02, -2.458E-01         F               0         Blade root 2 X orientation angle, node 1, rad
        113   -1.132E-02, -9.720E-01, -2.348E-01         F               0         Blade root 2 Y orientation angle, node 1, rad
        114   -2.503E-01,  2.301E-01, -9.404E-01         F               0         Blade root 2 Z orientation angle, node 1, rad
        115    9.728E-01, -1.106E-03, -2.318E-01         F               0         Blade root 3 X orientation angle, node 1, rad
        116   -1.679E-01,  6.860E-01, -7.080E-01         F               0         Blade root 3 Y orientation angle, node 1, rad
        117    1.598E-01,  7.276E-01,  6.671E-01         F               0         Blade root 3 Z orientation angle, node 1, rad
        118    3.504E+01                                 F               0         Blade 1 X translation displacement, node 1, m
        119   -1.243E+01                                 F               0         Blade 1 Y translation displacement, node 1, m
        120   -4.488E+00                                 F               0         Blade 1 Z translation displacement, node 1, m
        121    3.503E+01                                 F               0         Blade 1 X translation displacement, node 2, m
        122   -1.371E+01                                 F               0         Blade 1 Y translation displacement, node 2, m
        123   -5.451E+00                                 F               0         Blade 1 Z translation displacement, node 2, m
        124    3.477E+01                                 F               0         Blade 1 X translation displacement, node 3, m
        125   -3.109E+01                                 F               0         Blade 1 Y translation displacement, node 3, m
        126   -1.854E+01                                 F               0         Blade 1 Z translation displacement, node 3, m
        127    3.472E+01                                 F               0         Blade 1 X translation displacement, node 4, m
        128   -3.479E+01                                 F               0         Blade 1 Y translation displacement, node 4, m
        129   -2.133E+01                                 F               0         Blade 1 Z translation displacement, node 4, m
        130    3.466E+01                                 F               0         Blade 1 X translation displacement, node 5, m
        131   -3.850E+01                                 F               0         Blade 1 Y translation displacement, node 5, m
        132   -2.412E+01                                 F               0         Blade 1 Z translation displacement, node 5, m
        133    3.461E+01                                 F               0         Blade 1 X translation displacement, node 6, m
        134   -4.220E+01                                 F               0         Blade 1 Y translation displacement, node 6, m
        135   -2.691E+01                                 F               0         Blade 1 Z translation displacement, node 6, m
        136    3.455E+01                                 F               0         Blade 1 X translation displacement, node 7, m
        137   -4.591E+01                                 F               0         Blade 1 Y translation displacement, node 7, m
        138   -2.970E+01                                 F               0         Blade 1 Z translation displacement, node 7, m
        139    3.450E+01                                 F               0         Blade 1 X translation displacement, node 8, m
        140   -4.961E+01                                 F               0         Blade 1 Y translation displacement, node 8, m
        141   -3.249E+01                                 F               0         Blade 1 Z translation displacement, node 8, m
        142    3.444E+01                                 F               0         Blade 1 X translation displacement, node 9, m
        143   -5.331E+01                                 F               0         Blade 1 Y translation displacement, node 9, m
        144   -3.528E+01                                 F               0         Blade 1 Z translation displacement, node 9, m
        145    3.439E+01                                 F               0         Blade 1 X translation displacement, node 10, m
        146   -5.702E+01                                 F               0         Blade 1 Y translation displacement, node 10, m
        147   -3.807E+01                                 F               0         Blade 1 Z translation displacement, node 10, m
        148    3.433E+01                                 F               0         Blade 1 X translation displacement, node 11, m
        149   -6.072E+01                                 F               0         Blade 1 Y translation displacement, node 11, m
        150   -4.086E+01                                 F               0         Blade 1 Z translation displacement, node 11, m
        151    3.428E+01                                 F               0         Blade 1 X translation displacement, node 12, m
        152   -6.443E+01                                 F               0         Blade 1 Y translation displacement, node 12, m
        153   -4.365E+01                                 F               0         Blade 1 Z translation displacement, node 12, m
        154    3.423E+01                                 F               0         Blade 1 X translation displacement, node 13, m
        155   -6.813E+01                                 F               0         Blade 1 Y translation displacement, node 13, m
        156   -4.644E+01                                 F               0         Blade 1 Z translation displacement, node 13, m
        157    3.417E+01                                 F               0         Blade 1 X translation displacement, node 14, m
        158   -7.183E+01                                 F               0         Blade 1 Y translation displacement, node 14, m
        159   -4.923E+01                                 F               0         Blade 1 Z translation displacement, node 14, m
        160    3.412E+01                                 F               0         Blade 1 X translation displacement, node 15, m
        161   -7.554E+01                                 F               0         Blade 1 Y translation displacement, node 15, m
        162   -5.202E+01                                 F               0         Blade 1 Z translation displacement, node 15, m
        163    3.406E+01                                 F               0         Blade 1 X translation displacement, node 16, m
        164   -7.924E+01                                 F               0         Blade 1 Y translation displacement, node 16, m
        165   -5.480E+01                                 F               0         Blade 1 Z translation displacement, node 16, m
        166    3.401E+01                                 F               0         Blade 1 X translation displacement, node 17, m
        167   -8.295E+01                                 F               0         Blade 1 Y translation displacement, node 17, m
        168   -5.759E+01                                 F               0         Blade 1 Z translation displacement, node 17, m
        169    3.395E+01                                 F               0         Blade 1 X translation displacement, node 18, m
        170   -8.665E+01                                 F               0         Blade 1 Y translation displacement, node 18, m
        171   -6.038E+01                                 F               0         Blade 1 Z translation displacement, node 18, m
        172    3.390E+01                                 F               0         Blade 1 X translation displacement, node 19, m
        173   -9.035E+01                                 F               0         Blade 1 Y translation displacement, node 19, m
        174   -6.317E+01                                 F               0         Blade 1 Z translation displacement, node 19, m
        175    3.384E+01                                 F               0         Blade 1 X translation displacement, node 20, m
        176   -9.406E+01                                 F               0         Blade 1 Y translation displacement, node 20, m
        177   -6.596E+01                                 F               0         Blade 1 Z translation displacement, node 20, m
        178    3.379E+01                                 F               0         Blade 1 X translation displacement, node 21, m
        179   -9.776E+01                                 F               0         Blade 1 Y translation displacement, node 21, m
        180   -6.875E+01                                 F               0         Blade 1 Z translation displacement, node 21, m
        181    3.374E+01                                 F               0         Blade 1 X translation displacement, node 22, m
        182   -1.015E+02                                 F               0         Blade 1 Y translation displacement, node 22, m
        183   -7.154E+01                                 F               0         Blade 1 Z translation displacement, node 22, m
        184    3.368E+01                                 F               0         Blade 1 X translation displacement, node 23, m
        185   -1.052E+02                                 F               0         Blade 1 Y translation displacement, node 23, m
        186   -7.433E+01                                 F               0         Blade 1 Z translation displacement, node 23, m
        187    3.363E+01                                 F               0         Blade 1 X translation displacement, node 24, m
        188   -1.089E+02                                 F               0         Blade 1 Y translation displacement, node 24, m
        189   -7.712E+01                                 F               0         Blade 1 Z translation displacement, node 24, m
        190    3.357E+01                                 F               0         Blade 1 X translation displacement, node 25, m
        191   -1.126E+02                                 F               0         Blade 1 Y translation displacement, node 25, m
        192   -7.991E+01                                 F               0         Blade 1 Z translation displacement, node 25, m
        193    3.352E+01                                 F               0         Blade 1 X translation displacement, node 26, m
        194   -1.163E+02                                 F               0         Blade 1 Y translation displacement, node 26, m
        195   -8.270E+01                                 F               0         Blade 1 Z translation displacement, node 26, m
        196    3.346E+01                                 F               0         Blade 1 X translation displacement, node 27, m
        197   -1.200E+02                                 F               0         Blade 1 Y translation displacement, node 27, m
        198   -8.549E+01                                 F               0         Blade 1 Z translation displacement, node 27, m
        199    3.342E+01                                 F               0         Blade 1 X translation displacement, node 28, m
        200   -1.231E+02                                 F               0         Blade 1 Y translation displacement, node 28, m
        201   -8.785E+01                                 F               0         Blade 1 Z translation displacement, node 28, m
        202    7.333E-01, -1.217E-01, -6.689E-01         F               0         Blade 1 X orientation angle, node 1, rad
        203    6.739E-01,  2.609E-01,  6.912E-01         F               0         Blade 1 Y orientation angle, node 1, rad
        204    9.045E-02, -9.577E-01,  2.733E-01         F               0         Blade 1 Z orientation angle, node 1, rad
        205    7.333E-01, -1.217E-01, -6.689E-01         F               0         Blade 1 X orientation angle, node 2, rad
        206    6.739E-01,  2.609E-01,  6.912E-01         F               0         Blade 1 Y orientation angle, node 2, rad
        207    9.045E-02, -9.577E-01,  2.733E-01         F               0         Blade 1 Z orientation angle, node 2, rad
        208    8.721E-01, -5.635E-02, -4.861E-01         F               0         Blade 1 X orientation angle, node 3, rad
        209    4.809E-01,  2.823E-01,  8.301E-01         F               0         Blade 1 Y orientation angle, node 3, rad
        210    9.045E-02, -9.577E-01,  2.733E-01         F               0         Blade 1 Z orientation angle, node 3, rad
        211    8.916E-01, -4.438E-02, -4.506E-01         F               0         Blade 1 X orientation angle, node 4, rad
        212    4.436E-01,  2.845E-01,  8.499E-01         F               0         Blade 1 Y orientation angle, node 4, rad
        213    9.045E-02, -9.577E-01,  2.733E-01         F               0         Blade 1 Z orientation angle, node 4, rad
        214    9.059E-01, -3.492E-02, -4.221E-01         F               0         Blade 1 X orientation angle, node 5, rad
        215    4.138E-01,  2.858E-01,  8.643E-01         F               0         Blade 1 Y orientation angle, node 5, rad
        216    9.045E-02, -9.577E-01,  2.733E-01         F               0         Blade 1 Z orientation angle, node 5, rad
        217    9.165E-01, -2.733E-02, -3.991E-01         F               0         Blade 1 X orientation angle, node 6, rad
        218    3.896E-01,  2.866E-01,  8.752E-01         F               0         Blade 1 Y orientation angle, node 6, rad
        219    9.045E-02, -9.577E-01,  2.733E-01         F               0         Blade 1 Z orientation angle, node 6, rad
        220    9.248E-01, -2.107E-02, -3.799E-01         F               0         Blade 1 X orientation angle, node 7, rad
        221    3.696E-01,  2.871E-01,  8.837E-01         F               0         Blade 1 Y orientation angle, node 7, rad
        222    9.045E-02, -9.577E-01,  2.733E-01         F               0         Blade 1 Z orientation angle, node 7, rad
        223    9.314E-01, -1.586E-02, -3.638E-01         F               0         Blade 1 X orientation angle, node 8, rad
        224    3.527E-01,  2.875E-01,  8.905E-01         F               0         Blade 1 Y orientation angle, node 8, rad
        225    9.045E-02, -9.577E-01,  2.733E-01         F               0         Blade 1 Z orientation angle, node 8, rad
        226    9.367E-01, -1.144E-02, -3.501E-01         F               0         Blade 1 X orientation angle, node 9, rad
        227    3.384E-01,  2.877E-01,  8.960E-01         F               0         Blade 1 Y orientation angle, node 9, rad