
Linearized model: Predictions were generated on 30-Jan-2024 at 18:20:32 using OpenFAST, compiled as a 64-bit application using single precision at commit v3.5.1
 linked with  NWTC Subroutine Library; ElastoDyn; InflowWind; AeroDyn; ServoDyn; HydroDyn; MAP++ (<1.20.10>, <Oct-20-2023>)

Description from the FAST input file: CCT-9 Campign 4 model. Input files to be run with OpenFAST 3.5.0. GitHub branch from Lu Wang (https://github.com/luwang00/openfast/tree/dev) compiled on March 7, 2023.

Simulation information:
   Simulation time:                   501.2500 s
   Rotor Speed:                         0.8795 rad/s
   Azimuth:                             6.2596 rad
   Wind Speed:                         10.0000 m/s
   Number of continuous states:        14
   Number of discrete states:           0
   Number of constraint states:         0
   Number of inputs:                 1890
   Number of outputs:                  19
   Jacobians included in this file?    No

Order of continuous states:
   Row/Column Operating Point                     Rotating Frame? Derivative Order Description
   ---------- ---------------                     --------------- ---------------- -----------
          1    8.883E+00                                 F               2         Platform horizontal surge translation DOF (internal DOF index = DOF_Sg), m
          2   -3.613E-01                                 F               2         Platform horizontal sway translation DOF (internal DOF index = DOF_Sw), m
          3   -1.729E-01                                 F               2         Platform vertical heave translation DOF (internal DOF index = DOF_Hv), m
          4    4.232E-02                                 F               2         Platform roll tilt rotation DOF (internal DOF index = DOF_R), rad
          5    1.154E-01                                 F               2         Platform pitch tilt rotation DOF (internal DOF index = DOF_P), rad
          6    7.579E-03                                 F               2         Platform yaw rotation DOF (internal DOF index = DOF_Y), rad
          7    4.689E+00                                 F               2         Variable speed generator DOF (internal DOF index = DOF_GeAz), rad
          8   -3.070E-03                                 F               2         First time derivative of Platform horizontal surge translation DOF (internal DOF index = DOF_Sg), m/s
          9    2.445E-03                                 F               2         First time derivative of Platform horizontal sway translation DOF (internal DOF index = DOF_Sw), m/s
         10   -1.848E-04                                 F               2         First time derivative of Platform vertical heave translation DOF (internal DOF index = DOF_Hv), m/s
         11   -1.322E-04                                 F               2         First time derivative of Platform roll tilt rotation DOF (internal DOF index = DOF_R), rad/s
         12    1.807E-05                                 F               2         First time derivative of Platform pitch tilt rotation DOF (internal DOF index = DOF_P), rad/s
         13   -1.655E-06                                 F               2         First time derivative of Platform yaw rotation DOF (internal DOF index = DOF_Y), rad/s
         14    8.795E-01                                 F               2         First time derivative of Variable speed generator DOF (internal DOF index = DOF_GeAz), rad/s

Order of continuous state derivatives:
   Row/Column Operating Point                     Rotating Frame? Derivative Order Description
   ---------- ---------------                     --------------- ---------------- -----------
          1   -3.070E-03                                 F               2         First time derivative of Platform horizontal surge translation DOF (internal DOF index = DOF_Sg), m/s
          2    2.445E-03                                 F               2         First time derivative of Platform horizontal sway translation DOF (internal DOF index = DOF_Sw), m/s
          3   -1.848E-04                                 F               2         First time derivative of Platform vertical heave translation DOF (internal DOF index = DOF_Hv), m/s
          4   -1.322E-04                                 F               2         First time derivative of Platform roll tilt rotation DOF (internal DOF index = DOF_R), rad/s
          5    1.807E-05                                 F               2         First time derivative of Platform pitch tilt rotation DOF (internal DOF index = DOF_P), rad/s
          6   -1.655E-06                                 F               2         First time derivative of Platform yaw rotation DOF (internal DOF index = DOF_Y), rad/s
          7    8.795E-01                                 F               2         First time derivative of Variable speed generator DOF (internal DOF index = DOF_GeAz), rad/s
          8   -3.193E-04                                 F               2         First time derivative of First time derivative of Platform horizontal surge translation DOF (internal DOF index = DOF_Sg), m/s/s
          9    2.223E-05                                 F               2         First time derivative of First time derivative of Platform horizontal sway translation DOF (internal DOF index = DOF_Sw), m/s/s
         10    1.532E-03                                 F               2         First time derivative of First time derivative of Platform vertical heave translation DOF (internal DOF index = DOF_Hv), m/s/s
         11    5.801E-05                                 F               2         First time derivative of First time derivative of Platform roll tilt rotation DOF (internal DOF index = DOF_R), rad/s/s
         12    5.164E-06                                 F               2         First time derivative of First time derivative of Platform pitch tilt rotation DOF (internal DOF index = DOF_P), rad/s/s
         13   -1.833E-05                                 F               2         First time derivative of First time derivative of Platform yaw rotation DOF (internal DOF index = DOF_Y), rad/s/s
         14   -1.957E-04                                 F               2         First time derivative of First time derivative of Variable speed generator DOF (internal DOF index = DOF_GeAz), rad/s/s

Order of inputs:
     Column   Operating Point                     Rotating Frame? Derivative Order Description
   ---------- ---------------                     --------------- ---------------- -----------
          1    6.975E+01                                 F               0         Blade 1 X force, node 1, N
          2    7.654E+01                                 F               0         Blade 1 Y force, node 1, N
          3   -1.425E+01                                 F               0         Blade 1 Z force, node 1, N
          4    2.993E+02                                 F               0         Blade 1 X force, node 2, N
          5    1.491E+02                                 F               0         Blade 1 Y force, node 2, N
          6   -6.423E+01                                 F               0         Blade 1 Z force, node 2, N
          7    3.896E+02                                 F               0         Blade 1 X force, node 3, N
          8    9.323E+01                                 F               0         Blade 1 Y force, node 3, N
          9   -8.533E+01                                 F               0         Blade 1 Z force, node 3, N
         10    5.116E+02                                 F               0         Blade 1 X force, node 4, N
         11    5.540E+01                                 F               0         Blade 1 Y force, node 4, N
         12   -1.132E+02                                 F               0         Blade 1 Z force, node 4, N
         13    6.337E+02                                 F               0         Blade 1 X force, node 5, N
         14    1.758E+01                                 F               0         Blade 1 Y force, node 5, N
         15   -1.411E+02                                 F               0         Blade 1 Z force, node 5, N
         16    7.558E+02                                 F               0         Blade 1 X force, node 6, N
         17   -2.024E+01                                 F               0         Blade 1 Y force, node 6, N
         18   -1.690E+02                                 F               0         Blade 1 Z force, node 6, N
         19    8.779E+02                                 F               0         Blade 1 X force, node 7, N
         20   -5.806E+01                                 F               0         Blade 1 Y force, node 7, N
         21   -1.969E+02                                 F               0         Blade 1 Z force, node 7, N
         22    1.000E+03                                 F               0         Blade 1 X force, node 8, N
         23   -9.588E+01                                 F               0         Blade 1 Y force, node 8, N
         24   -2.248E+02                                 F               0         Blade 1 Z force, node 8, N
         25    1.122E+03                                 F               0         Blade 1 X force, node 9, N
         26   -1.337E+02                                 F               0         Blade 1 Y force, node 9, N
         27   -2.526E+02                                 F               0         Blade 1 Z force, node 9, N
         28    1.244E+03                                 F               0         Blade 1 X force, node 10, N
         29   -1.715E+02                                 F               0         Blade 1 Y force, node 10, N
         30   -2.805E+02                                 F               0         Blade 1 Z force, node 10, N
         31    1.366E+03                                 F               0         Blade 1 X force, node 11, N
         32   -2.094E+02                                 F               0         Blade 1 Y force, node 11, N
         33   -3.084E+02                                 F               0         Blade 1 Z force, node 11, N
         34    1.488E+03                                 F               0         Blade 1 X force, node 12, N
         35   -2.472E+02                                 F               0         Blade 1 Y force, node 12, N
         36   -3.363E+02                                 F               0         Blade 1 Z force, node 12, N
         37    1.610E+03                                 F               0         Blade 1 X force, node 13, N
         38   -2.850E+02                                 F               0         Blade 1 Y force, node 13, N
         39   -3.642E+02                                 F               0         Blade 1 Z force, node 13, N
         40    1.732E+03                                 F               0         Blade 1 X force, node 14, N
         41   -3.228E+02                                 F               0         Blade 1 Y force, node 14, N
         42   -3.921E+02                                 F               0         Blade 1 Z force, node 14, N
         43    1.855E+03                                 F               0         Blade 1 X force, node 15, N
         44   -3.606E+02                                 F               0         Blade 1 Y force, node 15, N
         45   -4.200E+02                                 F               0         Blade 1 Z force, node 15, N
         46    1.977E+03                                 F               0         Blade 1 X force, node 16, N
         47   -3.985E+02                                 F               0         Blade 1 Y force, node 16, N
         48   -4.478E+02                                 F               0         Blade 1 Z force, node 16, N
         49    2.435E+03                                 F               0         Blade 1 X force, node 17, N
         50   -5.036E+02                                 F               0         Blade 1 Y force, node 17, N
         51   -5.519E+02                                 F               0         Blade 1 Z force, node 17, N
         52    1.869E+03                                 F               0         Blade 1 X force, node 18, N
         53   -3.715E+02                                 F               0         Blade 1 Y force, node 18, N
         54   -4.233E+02                                 F               0         Blade 1 Z force, node 18, N
         55    2.307E+03                                 F               0         Blade 1 X force, node 19, N
         56   -4.321E+02                                 F               0         Blade 1 Y force, node 19, N
         57   -5.221E+02                                 F               0         Blade 1 Z force, node 19, N
         58    1.978E+03                                 F               0         Blade 1 X force, node 20, N
         59   -3.497E+02                                 F               0         Blade 1 Y force, node 20, N
         60   -4.472E+02                                 F               0         Blade 1 Z force, node 20, N
         61    2.938E+03                                 F               0         Blade 1 X force, node 21, N
         62   -4.854E+02                                 F               0         Blade 1 Y force, node 21, N
         63   -6.639E+02                                 F               0         Blade 1 Z force, node 21, N
         64    2.608E+03                                 F               0         Blade 1 X force, node 22, N
         65   -4.020E+02                                 F               0         Blade 1 Y force, node 22, N
         66   -5.889E+02                                 F               0         Blade 1 Z force, node 22, N
         67    2.692E+03                                 F               0         Blade 1 X force, node 23, N
         68   -3.892E+02                                 F               0         Blade 1 Y force, node 23, N
         69   -6.074E+02                                 F               0         Blade 1 Z force, node 23, N
         70    2.825E+03                                 F               0         Blade 1 X force, node 24, N
         71   -3.830E+02                                 F               0         Blade 1 Y force, node 24, N
         72   -6.368E+02                                 F               0         Blade 1 Z force, node 24, N
         73    2.908E+03                                 F               0         Blade 1 X force, node 25, N
         74   -3.696E+02                                 F               0         Blade 1 Y force, node 25, N
         75   -6.551E+02                                 F               0         Blade 1 Z force, node 25, N
         76    3.006E+03                                 F               0         Blade 1 X force, node 26, N
         77   -3.583E+02                                 F               0         Blade 1 Y force, node 26, N
         78   -6.769E+02                                 F               0         Blade 1 Z force, node 26, N
         79    3.617E+03                                 F               0         Blade 1 X force, node 27, N
         80   -4.025E+02                                 F               0         Blade 1 Y force, node 27, N
         81   -8.140E+02                                 F               0         Blade 1 Z force, node 27, N
         82    2.692E+03                                 F               0         Blade 1 X force, node 28, N
         83   -2.798E+02                                 F               0         Blade 1 Y force, node 28, N
         84   -6.055E+02                                 F               0         Blade 1 Z force, node 28, N
         85    3.303E+03                                 F               0         Blade 1 X force, node 29, N
         86   -3.238E+02                                 F               0         Blade 1 Y force, node 29, N
         87   -7.426E+02                                 F               0         Blade 1 Z force, node 29, N
         88    2.818E+03                                 F               0         Blade 1 X force, node 30, N
         89   -2.605E+02                                 F               0         Blade 1 Y force, node 30, N
         90   -6.333E+02                                 F               0         Blade 1 Z force, node 30, N
         91    4.085E+03                                 F               0         Blade 1 X force, node 31, N
         92   -3.521E+02                                 F               0         Blade 1 Y force, node 31, N
         93   -9.174E+02                                 F               0         Blade 1 Z force, node 31, N
         94    3.599E+03                                 F               0         Blade 1 X force, node 32, N
         95   -2.885E+02                                 F               0         Blade 1 Y force, node 32, N
         96   -8.080E+02                                 F               0         Blade 1 Z force, node 32, N
         97    3.697E+03                                 F               0         Blade 1 X force, node 33, N
         98   -2.765E+02                                 F               0         Blade 1 Y force, node 33, N
         99   -8.297E+02                                 F               0         Blade 1 Z force, node 33, N
        100    3.796E+03                                 F               0         Blade 1 X force, node 34, N
        101   -2.646E+02                                 F               0         Blade 1 Y force, node 34, N
        102   -8.515E+02                                 F               0         Blade 1 Z force, node 34, N
        103    3.895E+03                                 F               0         Blade 1 X force, node 35, N
        104   -2.525E+02                                 F               0         Blade 1 Y force, node 35, N
        105   -8.733E+02                                 F               0         Blade 1 Z force, node 35, N
        106    3.992E+03                                 F               0         Blade 1 X force, node 36, N
        107   -2.403E+02                                 F               0         Blade 1 Y force, node 36, N
        108   -8.949E+02                                 F               0         Blade 1 Z force, node 36, N
        109    4.787E+03                                 F               0         Blade 1 X force, node 37, N
        110   -2.657E+02                                 F               0         Blade 1 Y force, node 37, N
        111   -1.073E+03                                 F               0         Blade 1 Z force, node 37, N
        112    3.493E+03                                 F               0         Blade 1 X force, node 38, N
        113   -1.785E+02                                 F               0         Blade 1 Y force, node 38, N
        114   -7.825E+02                                 F               0         Blade 1 Z force, node 38, N
        115    4.289E+03                                 F               0         Blade 1 X force, node 39, N
        116   -2.039E+02                                 F               0         Blade 1 Y force, node 39, N
        117   -9.604E+02                                 F               0         Blade 1 Z force, node 39, N
        118    3.663E+03                                 F               0         Blade 1 X force, node 40, N
        119   -1.615E+02                                 F               0         Blade 1 Y force, node 40, N
        120   -8.200E+02                                 F               0         Blade 1 Z force, node 40, N
        121    5.211E+03                                 F               0         Blade 1 X force, node 41, N
        122   -2.096E+02                                 F               0         Blade 1 Y force, node 41, N
        123   -1.166E+03                                 F               0         Blade 1 Z force, node 41, N
        124    4.584E+03                                 F               0         Blade 1 X force, node 42, N
        125   -1.671E+02                                 F               0         Blade 1 Y force, node 42, N
        126   -1.026E+03                                 F               0         Blade 1 Z force, node 42, N
        127    4.681E+03                                 F               0         Blade 1 X force, node 43, N
        128   -1.546E+02                                 F               0         Blade 1 Y force, node 43, N
        129   -1.047E+03                                 F               0         Blade 1 Z force, node 43, N
        130    4.804E+03                                 F               0         Blade 1 X force, node 44, N
        131   -1.429E+02                                 F               0         Blade 1 Y force, node 44, N
        132   -1.074E+03                                 F               0         Blade 1 Z force, node 44, N
        133    4.851E+03                                 F               0         Blade 1 X force, node 45, N
        134   -1.290E+02                                 F               0         Blade 1 Y force, node 45, N
        135   -1.085E+03                                 F               0         Blade 1 Z force, node 45, N
        136    4.974E+03                                 F               0         Blade 1 X force, node 46, N
        137   -1.173E+02                                 F               0         Blade 1 Y force, node 46, N
        138   -1.112E+03                                 F               0         Blade 1 Z force, node 46, N
        139    5.962E+03                                 F               0         Blade 1 X force, node 47, N
        140   -1.221E+02                                 F               0         Blade 1 Y force, node 47, N
        141   -1.332E+03                                 F               0         Blade 1 Z force, node 47, N
        142    4.279E+03                                 F               0         Blade 1 X force, node 48, N
        143   -7.504E+01                                 F               0         Blade 1 Y force, node 48, N
        144   -9.561E+02                                 F               0         Blade 1 Z force, node 48, N
        145    5.266E+03                                 F               0         Blade 1 X force, node 49, N
        146   -7.974E+01                                 F               0         Blade 1 Y force, node 49, N
        147   -1.176E+03                                 F               0         Blade 1 Z force, node 49, N
        148    4.510E+03                                 F               0         Blade 1 X force, node 50, N
        149   -5.771E+01                                 F               0         Blade 1 Y force, node 50, N
        150   -1.007E+03                                 F               0         Blade 1 Z force, node 50, N
        151    6.315E+03                                 F               0         Blade 1 X force, node 51, N
        152   -6.411E+01                                 F               0         Blade 1 Y force, node 51, N
        153   -1.410E+03                                 F               0         Blade 1 Z force, node 51, N
        154    5.560E+03                                 F               0         Blade 1 X force, node 52, N
        155   -4.215E+01                                 F               0         Blade 1 Y force, node 52, N
        156   -1.241E+03                                 F               0         Blade 1 Z force, node 52, N
        157    5.658E+03                                 F               0         Blade 1 X force, node 53, N
        158   -2.966E+01                                 F               0         Blade 1 Y force, node 53, N
        159   -1.263E+03                                 F               0         Blade 1 Z force, node 53, N
        160    5.820E+03                                 F               0         Blade 1 X force, node 54, N
        161   -1.730E+01                                 F               0         Blade 1 Y force, node 54, N
        162   -1.299E+03                                 F               0         Blade 1 Z force, node 54, N
        163    5.792E+03                                 F               0         Blade 1 X force, node 55, N
        164   -4.453E+00                                 F               0         Blade 1 Y force, node 55, N
        165   -1.292E+03                                 F               0         Blade 1 Z force, node 55, N
        166    5.953E+03                                 F               0         Blade 1 X force, node 56, N
        167    7.982E+00                                 F               0         Blade 1 Y force, node 56, N
        168   -1.328E+03                                 F               0         Blade 1 Z force, node 56, N
        169    7.146E+03                                 F               0         Blade 1 X force, node 57, N
        170    2.528E+01                                 F               0         Blade 1 Y force, node 57, N
        171   -1.594E+03                                 F               0         Blade 1 Z force, node 57, N
        172    5.054E+03                                 F               0         Blade 1 X force, node 58, N
        173    2.844E+01                                 F               0         Blade 1 Y force, node 58, N
        174   -1.127E+03                                 F               0         Blade 1 Z force, node 58, N
        175    6.247E+03                                 F               0         Blade 1 X force, node 59, N
        176    4.579E+01                                 F               0         Blade 1 Y force, node 59, N
        177   -1.393E+03                                 F               0         Blade 1 Z force, node 59, N
        178    5.374E+03                                 F               0         Blade 1 X force, node 60, N
        179    4.846E+01                                 F               0         Blade 1 Y force, node 60, N
        180   -1.198E+03                                 F               0         Blade 1 Z force, node 60, N
        181    7.414E+03                                 F               0         Blade 1 X force, node 61, N
        182    8.103E+01                                 F               0         Blade 1 Y force, node 61, N
        183   -1.653E+03                                 F               0         Blade 1 Z force, node 61, N
        184    6.539E+03                                 F               0         Blade 1 X force, node 62, N
        185    8.382E+01                                 F               0         Blade 1 Y force, node 62, N
        186   -1.458E+03                                 F               0         Blade 1 Z force, node 62, N
        187    6.635E+03                                 F               0         Blade 1 X force, node 63, N
        188    9.656E+01                                 F               0         Blade 1 Y force, node 63, N
        189   -1.479E+03                                 F               0         Blade 1 Z force, node 63, N
        190    6.844E+03                                 F               0         Blade 1 X force, node 64, N
        191    1.112E+02                                 F               0         Blade 1 Y force, node 64, N
        192   -1.525E+03                                 F               0         Blade 1 Z force, node 64, N
        193    6.717E+03                                 F               0         Blade 1 X force, node 65, N
        194    1.200E+02                                 F               0         Blade 1 Y force, node 65, N
        195   -1.497E+03                                 F               0         Blade 1 Z force, node 65, N
        196    6.929E+03                                 F               0         Blade 1 X force, node 66, N
        197    1.346E+02                                 F               0         Blade 1 Y force, node 66, N
        198   -1.544E+03                                 F               0         Blade 1 Z force, node 66, N
        199    8.338E+03                                 F               0         Blade 1 X force, node 67, N
        200    1.755E+02                                 F               0         Blade 1 Y force, node 67, N
        201   -1.857E+03                                 F               0         Blade 1 Z force, node 67, N
        202    5.817E+03                                 F               0         Blade 1 X force, node 68, N
        203    1.316E+02                                 F               0         Blade 1 Y force, node 68, N
        204   -1.296E+03                                 F               0         Blade 1 Z force, node 68, N
        205    7.224E+03                                 F               0         Blade 1 X force, node 69, N
        206    1.727E+02                                 F               0         Blade 1 Y force, node 69, N
        207   -1.609E+03                                 F               0         Blade 1 Z force, node 69, N
        208    6.244E+03                                 F               0         Blade 1 X force, node 70, N
        209    1.573E+02                                 F               0         Blade 1 Y force, node 70, N
        210   -1.390E+03                                 F               0         Blade 1 Z force, node 70, N