
Linearized model: Predictions were generated on 12-Feb-2024 at 18:31:58 using OpenFAST, compiled as a 64-bit application using single precision at commit v3.5.1
 linked with  NWTC Subroutine Library; ElastoDyn; InflowWind; AeroDyn; ServoDyn; HydroDyn; MAP++ (<1.20.10>, <Oct-20-2023>)

Description from the FAST input file: CCT-9 Campign 4 model. Input files to be run with OpenFAST 3.5.0. GitHub branch from Lu Wang (https://github.com/luwang00/openfast/tree/dev) compiled on March 7, 2023.

Simulation information:
   Simulation time:                  1005.9750 s
   Rotor Speed:                         1.0470 rad/s
   Azimuth:                             5.9200 rad
   Wind Speed:                         12.0000 m/s
   Number of continuous states:         0
   Number of discrete states:           0
   Number of constraint states:         0
   Number of inputs:                  303
   Number of outputs:                   1
   Jacobians included in this file?    No

Order of inputs:
     Column   Operating Point                     Rotating Frame? Derivative Order Description
   ---------- ---------------                     --------------- ---------------- -----------
          1   -1.080E+01                                 F               0         X-component position of node 1 (hub), m
          2    0.000E+00                                 F               0         Y-component position of node 1 (hub), m
          3    1.497E+02                                 F               0         Z-component position of node 1 (hub), m
          4    2.560E+01                                 F               0         X-component position of node 2 (blade 1, node 1), m
          5   -5.350E+00                                 F               0         Y-component position of node 2 (blade 1, node 1), m
          6    1.544E+02                                 F               0         Z-component position of node 2 (blade 1, node 1), m
          7    2.591E+01                                 F               0         X-component position of node 3 (blade 1, node 2), m
          8   -4.930E+00                                 F               0         Y-component position of node 3 (blade 1, node 2), m
          9    1.556E+02                                 F               0         Z-component position of node 3 (blade 1, node 2), m
         10    3.015E+01                                 F               0         X-component position of node 4 (blade 1, node 3), m
         11    7.842E-01                                 F               0         Y-component position of node 4 (blade 1, node 3), m
         12    1.723E+02                                 F               0         Z-component position of node 4 (blade 1, node 3), m
         13    3.105E+01                                 F               0         X-component position of node 5 (blade 1, node 4), m
         14    2.002E+00                                 F               0         Y-component position of node 5 (blade 1, node 4), m
         15    1.758E+02                                 F               0         Z-component position of node 5 (blade 1, node 4), m
         16    3.196E+01                                 F               0         X-component position of node 6 (blade 1, node 5), m
         17    3.219E+00                                 F               0         Y-component position of node 6 (blade 1, node 5), m
         18    1.794E+02                                 F               0         Z-component position of node 6 (blade 1, node 5), m
         19    3.286E+01                                 F               0         X-component position of node 7 (blade 1, node 6), m
         20    4.436E+00                                 F               0         Y-component position of node 7 (blade 1, node 6), m
         21    1.830E+02                                 F               0         Z-component position of node 7 (blade 1, node 6), m
         22    3.377E+01                                 F               0         X-component position of node 8 (blade 1, node 7), m
         23    5.654E+00                                 F               0         Y-component position of node 8 (blade 1, node 7), m
         24    1.865E+02                                 F               0         Z-component position of node 8 (blade 1, node 7), m
         25    3.467E+01                                 F               0         X-component position of node 9 (blade 1, node 8), m
         26    6.871E+00                                 F               0         Y-component position of node 9 (blade 1, node 8), m
         27    1.901E+02                                 F               0         Z-component position of node 9 (blade 1, node 8), m
         28    3.558E+01                                 F               0         X-component position of node 10 (blade 1, node 9), m
         29    8.089E+00                                 F               0         Y-component position of node 10 (blade 1, node 9), m
         30    1.936E+02                                 F               0         Z-component position of node 10 (blade 1, node 9), m
         31    3.648E+01                                 F               0         X-component position of node 11 (blade 1, node 10), m
         32    9.306E+00                                 F               0         Y-component position of node 11 (blade 1, node 10), m
         33    1.972E+02                                 F               0         Z-component position of node 11 (blade 1, node 10), m
         34    3.738E+01                                 F               0         X-component position of node 12 (blade 1, node 11), m
         35    1.052E+01                                 F               0         Y-component position of node 12 (blade 1, node 11), m
         36    2.007E+02                                 F               0         Z-component position of node 12 (blade 1, node 11), m
         37    3.829E+01                                 F               0         X-component position of node 13 (blade 1, node 12), m
         38    1.174E+01                                 F               0         Y-component position of node 13 (blade 1, node 12), m
         39    2.043E+02                                 F               0         Z-component position of node 13 (blade 1, node 12), m
         40    3.919E+01                                 F               0         X-component position of node 14 (blade 1, node 13), m
         41    1.296E+01                                 F               0         Y-component position of node 14 (blade 1, node 13), m
         42    2.079E+02                                 F               0         Z-component position of node 14 (blade 1, node 13), m
         43    4.010E+01                                 F               0         X-component position of node 15 (blade 1, node 14), m
         44    1.418E+01                                 F               0         Y-component position of node 15 (blade 1, node 14), m
         45    2.114E+02                                 F               0         Z-component position of node 15 (blade 1, node 14), m
         46    4.100E+01                                 F               0         X-component position of node 16 (blade 1, node 15), m
         47    1.539E+01                                 F               0         Y-component position of node 16 (blade 1, node 15), m
         48    2.150E+02                                 F               0         Z-component position of node 16 (blade 1, node 15), m
         49    4.190E+01                                 F               0         X-component position of node 17 (blade 1, node 16), m
         50    1.661E+01                                 F               0         Y-component position of node 17 (blade 1, node 16), m
         51    2.185E+02                                 F               0         Z-component position of node 17 (blade 1, node 16), m
         52    4.281E+01                                 F               0         X-component position of node 18 (blade 1, node 17), m
         53    1.783E+01                                 F               0         Y-component position of node 18 (blade 1, node 17), m
         54    2.221E+02                                 F               0         Z-component position of node 18 (blade 1, node 17), m
         55    4.371E+01                                 F               0         X-component position of node 19 (blade 1, node 18), m
         56    1.905E+01                                 F               0         Y-component position of node 19 (blade 1, node 18), m
         57    2.257E+02                                 F               0         Z-component position of node 19 (blade 1, node 18), m
         58    4.462E+01                                 F               0         X-component position of node 20 (blade 1, node 19), m
         59    2.026E+01                                 F               0         Y-component position of node 20 (blade 1, node 19), m
         60    2.292E+02                                 F               0         Z-component position of node 20 (blade 1, node 19), m
         61    4.552E+01                                 F               0         X-component position of node 21 (blade 1, node 20), m
         62    2.148E+01                                 F               0         Y-component position of node 21 (blade 1, node 20), m
         63    2.328E+02                                 F               0         Z-component position of node 21 (blade 1, node 20), m
         64    4.642E+01                                 F               0         X-component position of node 22 (blade 1, node 21), m
         65    2.270E+01                                 F               0         Y-component position of node 22 (blade 1, node 21), m
         66    2.363E+02                                 F               0         Z-component position of node 22 (blade 1, node 21), m
         67    4.733E+01                                 F               0         X-component position of node 23 (blade 1, node 22), m
         68    2.392E+01                                 F               0         Y-component position of node 23 (blade 1, node 22), m
         69    2.399E+02                                 F               0         Z-component position of node 23 (blade 1, node 22), m
         70    4.823E+01                                 F               0         X-component position of node 24 (blade 1, node 23), m
         71    2.513E+01                                 F               0         Y-component position of node 24 (blade 1, node 23), m
         72    2.434E+02                                 F               0         Z-component position of node 24 (blade 1, node 23), m
         73    4.914E+01                                 F               0         X-component position of node 25 (blade 1, node 24), m
         74    2.635E+01                                 F               0         Y-component position of node 25 (blade 1, node 24), m
         75    2.470E+02                                 F               0         Z-component position of node 25 (blade 1, node 24), m
         76    5.004E+01                                 F               0         X-component position of node 26 (blade 1, node 25), m
         77    2.757E+01                                 F               0         Y-component position of node 26 (blade 1, node 25), m
         78    2.506E+02                                 F               0         Z-component position of node 26 (blade 1, node 25), m
         79    5.094E+01                                 F               0         X-component position of node 27 (blade 1, node 26), m
         80    2.879E+01                                 F               0         Y-component position of node 27 (blade 1, node 26), m
         81    2.541E+02                                 F               0         Z-component position of node 27 (blade 1, node 26), m
         82    5.185E+01                                 F               0         X-component position of node 28 (blade 1, node 27), m
         83    3.000E+01                                 F               0         Y-component position of node 28 (blade 1, node 27), m
         84    2.577E+02                                 F               0         Z-component position of node 28 (blade 1, node 27), m
         85    5.261E+01                                 F               0         X-component position of node 29 (blade 1, node 28), m
         86    3.103E+01                                 F               0         Y-component position of node 29 (blade 1, node 28), m
         87    2.607E+02                                 F               0         Z-component position of node 29 (blade 1, node 28), m
         88    2.412E+01                                 F               0         X-component position of node 30 (blade 2, node 1), m
         89   -1.252E+01                                 F               0         Y-component position of node 30 (blade 2, node 1), m
         90    1.482E+02                                 F               0         Z-component position of node 30 (blade 2, node 1), m
         91    2.408E+01                                 F               0         X-component position of node 31 (blade 2, node 2), m
         92   -1.383E+01                                 F               0         Y-component position of node 31 (blade 2, node 2), m
         93    1.479E+02                                 F               0         Z-component position of node 31 (blade 2, node 2), m
         94    2.349E+01                                 F               0         X-component position of node 32 (blade 2, node 3), m
         95   -3.160E+01                                 F               0         Y-component position of node 32 (blade 2, node 3), m
         96    1.442E+02                                 F               0         Z-component position of node 32 (blade 2, node 3), m
         97    2.337E+01                                 F               0         X-component position of node 33 (blade 2, node 4), m
         98   -3.539E+01                                 F               0         Y-component position of node 33 (blade 2, node 4), m
         99    1.435E+02                                 F               0         Z-component position of node 33 (blade 2, node 4), m
        100    2.324E+01                                 F               0         X-component position of node 34 (blade 2, node 5), m
        101   -3.918E+01                                 F               0         Y-component position of node 34 (blade 2, node 5), m
        102    1.427E+02                                 F               0         Z-component position of node 34 (blade 2, node 5), m
        103    2.312E+01                                 F               0         X-component position of node 35 (blade 2, node 6), m
        104   -4.296E+01                                 F               0         Y-component position of node 35 (blade 2, node 6), m
        105    1.419E+02                                 F               0         Z-component position of node 35 (blade 2, node 6), m
        106    2.299E+01                                 F               0         X-component position of node 36 (blade 2, node 7), m
        107   -4.675E+01                                 F               0         Y-component position of node 36 (blade 2, node 7), m
        108    1.412E+02                                 F               0         Z-component position of node 36 (blade 2, node 7), m
        109    2.287E+01                                 F               0         X-component position of node 37 (blade 2, node 8), m
        110   -5.054E+01                                 F               0         Y-component position of node 37 (blade 2, node 8), m
        111    1.404E+02                                 F               0         Z-component position of node 37 (blade 2, node 8), m
        112    2.274E+01                                 F               0         X-component position of node 38 (blade 2, node 9), m
        113   -5.432E+01                                 F               0         Y-component position of node 38 (blade 2, node 9), m
        114    1.396E+02                                 F               0         Z-component position of node 38 (blade 2, node 9), m
        115    2.262E+01                                 F               0         X-component position of node 39 (blade 2, node 10), m
        116   -5.811E+01                                 F               0         Y-component position of node 39 (blade 2, node 10), m
        117    1.388E+02                                 F               0         Z-component position of node 39 (blade 2, node 10), m
        118    2.249E+01                                 F               0         X-component position of node 40 (blade 2, node 11), m
        119   -6.190E+01                                 F               0         Y-component position of node 40 (blade 2, node 11), m
        120    1.381E+02                                 F               0         Z-component position of node 40 (blade 2, node 11), m
        121    2.237E+01                                 F               0         X-component position of node 41 (blade 2, node 12), m
        122   -6.569E+01                                 F               0         Y-component position of node 41 (blade 2, node 12), m
        123    1.373E+02                                 F               0         Z-component position of node 41 (blade 2, node 12), m
        124    2.224E+01                                 F               0         X-component position of node 42 (blade 2, node 13), m
        125   -6.947E+01                                 F               0         Y-component position of node 42 (blade 2, node 13), m
        126    1.365E+02                                 F               0         Z-component position of node 42 (blade 2, node 13), m
        127    2.212E+01                                 F               0         X-component position of node 43 (blade 2, node 14), m
        128   -7.326E+01                                 F               0         Y-component position of node 43 (blade 2, node 14), m
        129    1.357E+02                                 F               0         Z-component position of node 43 (blade 2, node 14), m
        130    2.199E+01                                 F               0         X-component position of node 44 (blade 2, node 15), m
        131   -7.705E+01                                 F               0         Y-component position of node 44 (blade 2, node 15), m
        132    1.350E+02                                 F               0         Z-component position of node 44 (blade 2, node 15), m
        133    2.187E+01                                 F               0         X-component position of node 45 (blade 2, node 16), m
        134   -8.084E+01                                 F               0         Y-component position of node 45 (blade 2, node 16), m
        135    1.342E+02                                 F               0         Z-component position of node 45 (blade 2, node 16), m
        136    2.174E+01                                 F               0         X-component position of node 46 (blade 2, node 17), m
        137   -8.462E+01                                 F               0         Y-component position of node 46 (blade 2, node 17), m
        138    1.334E+02                                 F               0         Z-component position of node 46 (blade 2, node 17), m
        139    2.162E+01                                 F               0         X-component position of node 47 (blade 2, node 18), m
        140   -8.841E+01                                 F               0         Y-component position of node 47 (blade 2, node 18), m
        141    1.326E+02                                 F               0         Z-component position of node 47 (blade 2, node 18), m
        142    2.149E+01                                 F               0         X-component position of node 48 (blade 2, node 19), m
        143   -9.220E+01                                 F               0         Y-component position of node 48 (blade 2, node 19), m
        144    1.319E+02                                 F               0         Z-component position of node 48 (blade 2, node 19), m
        145    2.137E+01                                 F               0         X-component position of node 49 (blade 2, node 20), m
        146   -9.598E+01                                 F               0         Y-component position of node 49 (blade 2, node 20), m
        147    1.311E+02                                 F               0         Z-component position of node 49 (blade 2, node 20), m
        148    2.124E+01                                 F               0         X-component position of node 50 (blade 2, node 21), m
        149   -9.977E+01                                 F               0         Y-component position of node 50 (blade 2, node 21), m
        150    1.303E+02                                 F               0         Z-component position of node 50 (blade 2, node 21), m
        151    2.112E+01                                 F               0         X-component position of node 51 (blade 2, node 22), m
        152   -1.036E+02                                 F               0         Y-component position of node 51 (blade 2, node 22), m
        153    1.295E+02                                 F               0         Z-component position of node 51 (blade 2, node 22), m
        154    2.099E+01                                 F               0         X-component position of node 52 (blade 2, node 23), m
        155   -1.073E+02                                 F               0         Y-component position of node 52 (blade 2, node 23), m
        156    1.288E+02                                 F               0         Z-component position of node 52 (blade 2, node 23), m
        157    2.087E+01                                 F               0         X-component position of node 53 (blade 2, node 24), m
        158   -1.111E+02                                 F               0         Y-component position of node 53 (blade 2, node 24), m
        159    1.280E+02                                 F               0         Z-component position of node 53 (blade 2, node 24), m
        160    2.074E+01                                 F               0         X-component position of node 54 (blade 2, node 25), m
        161   -1.149E+02                                 F               0         Y-component position of node 54 (blade 2, node 25), m
        162    1.272E+02                                 F               0         Z-component position of node 54 (blade 2, node 25), m
        163    2.062E+01                                 F               0         X-component position of node 55 (blade 2, node 26), m
        164   -1.187E+02                                 F               0         Y-component position of node 55 (blade 2, node 26), m
        165    1.264E+02                                 F               0         Z-component position of node 55 (blade 2, node 26), m
        166    2.049E+01                                 F               0         X-component position of node 56 (blade 2, node 27), m
        167   -1.225E+02                                 F               0         Y-component position of node 56 (blade 2, node 27), m
        168    1.257E+02                                 F               0         Z-component position of node 56 (blade 2, node 27), m
        169    2.039E+01                                 F               0         X-component position of node 57 (blade 2, node 28), m
        170   -1.257E+02                                 F               0         Y-component position of node 57 (blade 2, node 28), m
        171    1.250E+02                                 F               0         Z-component position of node 57 (blade 2, node 28), m
        172    2.319E+01                                 F               0         X-component position of node 58 (blade 3, node 1), m
        173   -3.413E+00                                 F               0         Y-component position of node 58 (blade 3, node 1), m
        174    1.453E+02                                 F               0         Z-component position of node 58 (blade 3, node 1), m
        175    2.292E+01                                 F               0         X-component position of node 59 (blade 3, node 2), m
        176   -2.526E+00                                 F               0         Y-component position of node 59 (blade 3, node 2), m
        177    1.443E+02                                 F               0         Z-component position of node 59 (blade 3, node 2), m
        178    1.926E+01                                 F               0         X-component position of node 60 (blade 3, node 3), m
        179    9.536E+00                                 F               0         Y-component position of node 60 (blade 3, node 3), m
        180    1.312E+02                                 F               0         Z-component position of node 60 (blade 3, node 3), m
        181    1.848E+01                                 F               0         X-component position of node 61 (blade 3, node 4), m
        182    1.211E+01                                 F               0         Y-component position of node 61 (blade 3, node 4), m
        183    1.285E+02                                 F               0         Z-component position of node 61 (blade 3, node 4), m
        184    1.770E+01                                 F               0         X-component position of node 62 (blade 3, node 5), m
        185    1.468E+01                                 F               0         Y-component position of node 62 (blade 3, node 5), m
        186    1.257E+02                                 F               0         Z-component position of node 62 (blade 3, node 5), m
        187    1.692E+01                                 F               0         X-component position of node 63 (blade 3, node 6), m
        188    1.725E+01                                 F               0         Y-component position of node 63 (blade 3, node 6), m
        189    1.229E+02                                 F               0         Z-component position of node 63 (blade 3, node 6), m
        190    1.614E+01                                 F               0         X-component position of node 64 (blade 3, node 7), m
        191    1.981E+01                                 F               0         Y-component position of node 64 (blade 3, node 7), m
        192    1.201E+02                                 F               0         Z-component position of node 64 (blade 3, node 7), m
        193    1.536E+01                                 F               0         X-component position of node 65 (blade 3, node 8), m
        194    2.239E+01                                 F               0         Y-component position of node 65 (blade 3, node 8), m
        195    1.173E+02                                 F               0         Z-component position of node 65 (blade 3, node 8), m
        196    1.459E+01                                 F               0         X-component position of node 66 (blade 3, node 9), m
        197    2.495E+01                                 F               0         Y-component position of node 66 (blade 3, node 9), m
        198    1.145E+02                                 F               0         Z-component position of node 66 (blade 3, node 9), m
        199    1.381E+01                                 F               0         X-component position of node 67 (blade 3, node 10), m
        200    2.752E+01                                 F               0         Y-component position of node 67 (blade 3, node 10), m
        201    1.118E+02                                 F               0         Z-component position of node 67 (blade 3, node 10), m
        202    1.303E+01                                 F               0         X-component position of node 68 (blade 3, node 11), m
        203    3.009E+01                                 F               0         Y-component position of node 68 (blade 3, node 11), m
        204    1.090E+02                                 F               0         Z-component position of node 68 (blade 3, node 11), m
        205    1.225E+01                                 F               0         X-component position of node 69 (blade 3, node 12), m
        206    3.266E+01                                 F               0         Y-component position of node 69 (blade 3, node 12), m
        207    1.062E+02                                 F               0         Z-component position of node 69 (blade 3, node 12), m
        208    1.147E+01                                 F               0         X-component position of node 70 (blade 3, node 13), m
        209    3.523E+01                                 F               0         Y-component position of node 70 (blade 3, node 13), m
        210    1.034E+02                                 F               0         Z-component position of node 70 (blade 3, node 13), m
        211    1.069E+01                                 F               0         X-component position of node 71 (blade 3, node 14), m