
Linearized model: Predictions were generated on 30-Jan-2024 at 18:20:32 using OpenFAST, compiled as a 64-bit application using single precision at commit v3.5.1
 linked with  NWTC Subroutine Library; ElastoDyn; InflowWind; AeroDyn; ServoDyn; HydroDyn; MAP++ (<1.20.10>, <Oct-20-2023>)

Description from the FAST input file: CCT-9 Campign 4 model. Input files to be run with OpenFAST 3.5.0. GitHub branch from Lu Wang (https://github.com/luwang00/openfast/tree/dev) compiled on March 7, 2023.

Simulation information:
   Simulation time:                   505.9250 s
   Rotor Speed:                         0.8795 rad/s
   Azimuth:                             4.0877 rad
   Wind Speed:                         10.0000 m/s
   Number of continuous states:         0
   Number of discrete states:           0
   Number of constraint states:         0
   Number of inputs:                  303
   Number of outputs:                   1
   Jacobians included in this file?    No

Order of inputs:
     Column   Operating Point                     Rotating Frame? Derivative Order Description
   ---------- ---------------                     --------------- ---------------- -----------
          1   -1.080E+01                                 F               0         X-component position of node 1 (hub), m
          2    0.000E+00                                 F               0         Y-component position of node 1 (hub), m
          3    1.497E+02                                 F               0         Z-component position of node 1 (hub), m
          4    1.460E+01                                 F               0         X-component position of node 2 (blade 1, node 1), m
          5   -2.111E+00                                 F               0         Y-component position of node 2 (blade 1, node 1), m
          6    1.467E+02                                 F               0         Z-component position of node 2 (blade 1, node 1), m
          7    1.443E+01                                 F               0         X-component position of node 3 (blade 1, node 2), m
          8   -9.979E-01                                 F               0         Y-component position of node 3 (blade 1, node 2), m
          9    1.460E+02                                 F               0         Z-component position of node 3 (blade 1, node 2), m
         10    1.204E+01                                 F               0         X-component position of node 4 (blade 1, node 3), m
         11    1.414E+01                                 F               0         Y-component position of node 4 (blade 1, node 3), m
         12    1.363E+02                                 F               0         Z-component position of node 4 (blade 1, node 3), m
         13    1.153E+01                                 F               0         X-component position of node 5 (blade 1, node 4), m
         14    1.737E+01                                 F               0         Y-component position of node 5 (blade 1, node 4), m
         15    1.342E+02                                 F               0         Z-component position of node 5 (blade 1, node 4), m
         16    1.102E+01                                 F               0         X-component position of node 6 (blade 1, node 5), m
         17    2.060E+01                                 F               0         Y-component position of node 6 (blade 1, node 5), m
         18    1.321E+02                                 F               0         Z-component position of node 6 (blade 1, node 5), m
         19    1.051E+01                                 F               0         X-component position of node 7 (blade 1, node 6), m
         20    2.382E+01                                 F               0         Y-component position of node 7 (blade 1, node 6), m
         21    1.301E+02                                 F               0         Z-component position of node 7 (blade 1, node 6), m
         22    1.001E+01                                 F               0         X-component position of node 8 (blade 1, node 7), m
         23    2.705E+01                                 F               0         Y-component position of node 8 (blade 1, node 7), m
         24    1.280E+02                                 F               0         Z-component position of node 8 (blade 1, node 7), m
         25    9.497E+00                                 F               0         X-component position of node 9 (blade 1, node 8), m
         26    3.028E+01                                 F               0         Y-component position of node 9 (blade 1, node 8), m
         27    1.259E+02                                 F               0         Z-component position of node 9 (blade 1, node 8), m
         28    8.989E+00                                 F               0         X-component position of node 10 (blade 1, node 9), m
         29    3.350E+01                                 F               0         Y-component position of node 10 (blade 1, node 9), m
         30    1.239E+02                                 F               0         Z-component position of node 10 (blade 1, node 9), m
         31    8.480E+00                                 F               0         X-component position of node 11 (blade 1, node 10), m
         32    3.673E+01                                 F               0         Y-component position of node 11 (blade 1, node 10), m
         33    1.218E+02                                 F               0         Z-component position of node 11 (blade 1, node 10), m
         34    7.972E+00                                 F               0         X-component position of node 12 (blade 1, node 11), m
         35    3.995E+01                                 F               0         Y-component position of node 12 (blade 1, node 11), m
         36    1.197E+02                                 F               0         Z-component position of node 12 (blade 1, node 11), m
         37    7.463E+00                                 F               0         X-component position of node 13 (blade 1, node 12), m
         38    4.318E+01                                 F               0         Y-component position of node 13 (blade 1, node 12), m
         39    1.176E+02                                 F               0         Z-component position of node 13 (blade 1, node 12), m
         40    6.954E+00                                 F               0         X-component position of node 14 (blade 1, node 13), m
         41    4.641E+01                                 F               0         Y-component position of node 14 (blade 1, node 13), m
         42    1.156E+02                                 F               0         Z-component position of node 14 (blade 1, node 13), m
         43    6.446E+00                                 F               0         X-component position of node 15 (blade 1, node 14), m
         44    4.963E+01                                 F               0         Y-component position of node 15 (blade 1, node 14), m
         45    1.135E+02                                 F               0         Z-component position of node 15 (blade 1, node 14), m
         46    5.937E+00                                 F               0         X-component position of node 16 (blade 1, node 15), m
         47    5.286E+01                                 F               0         Y-component position of node 16 (blade 1, node 15), m
         48    1.114E+02                                 F               0         Z-component position of node 16 (blade 1, node 15), m
         49    5.429E+00                                 F               0         X-component position of node 17 (blade 1, node 16), m
         50    5.609E+01                                 F               0         Y-component position of node 17 (blade 1, node 16), m
         51    1.094E+02                                 F               0         Z-component position of node 17 (blade 1, node 16), m
         52    4.920E+00                                 F               0         X-component position of node 18 (blade 1, node 17), m
         53    5.931E+01                                 F               0         Y-component position of node 18 (blade 1, node 17), m
         54    1.073E+02                                 F               0         Z-component position of node 18 (blade 1, node 17), m
         55    4.412E+00                                 F               0         X-component position of node 19 (blade 1, node 18), m
         56    6.254E+01                                 F               0         Y-component position of node 19 (blade 1, node 18), m
         57    1.052E+02                                 F               0         Z-component position of node 19 (blade 1, node 18), m
         58    3.903E+00                                 F               0         X-component position of node 20 (blade 1, node 19), m
         59    6.576E+01                                 F               0         Y-component position of node 20 (blade 1, node 19), m
         60    1.031E+02                                 F               0         Z-component position of node 20 (blade 1, node 19), m
         61    3.394E+00                                 F               0         X-component position of node 21 (blade 1, node 20), m
         62    6.899E+01                                 F               0         Y-component position of node 21 (blade 1, node 20), m
         63    1.011E+02                                 F               0         Z-component position of node 21 (blade 1, node 20), m
         64    2.886E+00                                 F               0         X-component position of node 22 (blade 1, node 21), m
         65    7.222E+01                                 F               0         Y-component position of node 22 (blade 1, node 21), m
         66    9.900E+01                                 F               0         Z-component position of node 22 (blade 1, node 21), m
         67    2.377E+00                                 F               0         X-component position of node 23 (blade 1, node 22), m
         68    7.544E+01                                 F               0         Y-component position of node 23 (blade 1, node 22), m
         69    9.693E+01                                 F               0         Z-component position of node 23 (blade 1, node 22), m
         70    1.869E+00                                 F               0         X-component position of node 24 (blade 1, node 23), m
         71    7.867E+01                                 F               0         Y-component position of node 24 (blade 1, node 23), m
         72    9.486E+01                                 F               0         Z-component position of node 24 (blade 1, node 23), m
         73    1.360E+00                                 F               0         X-component position of node 25 (blade 1, node 24), m
         74    8.190E+01                                 F               0         Y-component position of node 25 (blade 1, node 24), m
         75    9.279E+01                                 F               0         Z-component position of node 25 (blade 1, node 24), m
         76    8.517E-01                                 F               0         X-component position of node 26 (blade 1, node 25), m
         77    8.512E+01                                 F               0         Y-component position of node 26 (blade 1, node 25), m
         78    9.071E+01                                 F               0         Z-component position of node 26 (blade 1, node 25), m
         79    3.431E-01                                 F               0         X-component position of node 27 (blade 1, node 26), m
         80    8.835E+01                                 F               0         Y-component position of node 27 (blade 1, node 26), m
         81    8.864E+01                                 F               0         Z-component position of node 27 (blade 1, node 26), m
         82   -1.655E-01                                 F               0         X-component position of node 28 (blade 1, node 27), m
         83    9.158E+01                                 F               0         Y-component position of node 28 (blade 1, node 27), m
         84    8.657E+01                                 F               0         Z-component position of node 28 (blade 1, node 27), m
         85   -5.966E-01                                 F               0         X-component position of node 29 (blade 1, node 28), m
         86    9.431E+01                                 F               0         Y-component position of node 29 (blade 1, node 28), m
         87    8.482E+01                                 F               0         Z-component position of node 29 (blade 1, node 28), m
         88    1.653E+01                                 F               0         X-component position of node 30 (blade 2, node 1), m
         89   -6.398E+00                                 F               0         Y-component position of node 30 (blade 2, node 1), m
         90    1.551E+02                                 F               0         Z-component position of node 30 (blade 2, node 1), m
         91    1.682E+01                                 F               0         X-component position of node 31 (blade 2, node 2), m
         92   -6.317E+00                                 F               0         Y-component position of node 31 (blade 2, node 2), m
         93    1.564E+02                                 F               0         Z-component position of node 31 (blade 2, node 2), m
         94    2.075E+01                                 F               0         X-component position of node 32 (blade 2, node 3), m
         95   -5.221E+00                                 F               0         Y-component position of node 32 (blade 2, node 3), m
         96    1.741E+02                                 F               0         Z-component position of node 32 (blade 2, node 3), m
         97    2.158E+01                                 F               0         X-component position of node 33 (blade 2, node 4), m
         98   -4.988E+00                                 F               0         Y-component position of node 33 (blade 2, node 4), m
         99    1.779E+02                                 F               0         Z-component position of node 33 (blade 2, node 4), m
        100    2.242E+01                                 F               0         X-component position of node 34 (blade 2, node 5), m
        101   -4.754E+00                                 F               0         Y-component position of node 34 (blade 2, node 5), m
        102    1.816E+02                                 F               0         Z-component position of node 34 (blade 2, node 5), m
        103    2.326E+01                                 F               0         X-component position of node 35 (blade 2, node 6), m
        104   -4.520E+00                                 F               0         Y-component position of node 35 (blade 2, node 6), m
        105    1.854E+02                                 F               0         Z-component position of node 35 (blade 2, node 6), m
        106    2.410E+01                                 F               0         X-component position of node 36 (blade 2, node 7), m
        107   -4.287E+00                                 F               0         Y-component position of node 36 (blade 2, node 7), m
        108    1.892E+02                                 F               0         Z-component position of node 36 (blade 2, node 7), m
        109    2.493E+01                                 F               0         X-component position of node 37 (blade 2, node 8), m
        110   -4.053E+00                                 F               0         Y-component position of node 37 (blade 2, node 8), m
        111    1.929E+02                                 F               0         Z-component position of node 37 (blade 2, node 8), m
        112    2.577E+01                                 F               0         X-component position of node 38 (blade 2, node 9), m
        113   -3.820E+00                                 F               0         Y-component position of node 38 (blade 2, node 9), m
        114    1.967E+02                                 F               0         Z-component position of node 38 (blade 2, node 9), m
        115    2.661E+01                                 F               0         X-component position of node 39 (blade 2, node 10), m
        116   -3.586E+00                                 F               0         Y-component position of node 39 (blade 2, node 10), m
        117    2.005E+02                                 F               0         Z-component position of node 39 (blade 2, node 10), m
        118    2.744E+01                                 F               0         X-component position of node 40 (blade 2, node 11), m
        119   -3.352E+00                                 F               0         Y-component position of node 40 (blade 2, node 11), m
        120    2.042E+02                                 F               0         Z-component position of node 40 (blade 2, node 11), m
        121    2.828E+01                                 F               0         X-component position of node 41 (blade 2, node 12), m
        122   -3.119E+00                                 F               0         Y-component position of node 41 (blade 2, node 12), m
        123    2.080E+02                                 F               0         Z-component position of node 41 (blade 2, node 12), m
        124    2.912E+01                                 F               0         X-component position of node 42 (blade 2, node 13), m
        125   -2.885E+00                                 F               0         Y-component position of node 42 (blade 2, node 13), m
        126    2.118E+02                                 F               0         Z-component position of node 42 (blade 2, node 13), m
        127    2.996E+01                                 F               0         X-component position of node 43 (blade 2, node 14), m
        128   -2.652E+00                                 F               0         Y-component position of node 43 (blade 2, node 14), m
        129    2.155E+02                                 F               0         Z-component position of node 43 (blade 2, node 14), m
        130    3.079E+01                                 F               0         X-component position of node 44 (blade 2, node 15), m
        131   -2.418E+00                                 F               0         Y-component position of node 44 (blade 2, node 15), m
        132    2.193E+02                                 F               0         Z-component position of node 44 (blade 2, node 15), m
        133    3.163E+01                                 F               0         X-component position of node 45 (blade 2, node 16), m
        134   -2.184E+00                                 F               0         Y-component position of node 45 (blade 2, node 16), m
        135    2.231E+02                                 F               0         Z-component position of node 45 (blade 2, node 16), m
        136    3.247E+01                                 F               0         X-component position of node 46 (blade 2, node 17), m
        137   -1.951E+00                                 F               0         Y-component position of node 46 (blade 2, node 17), m
        138    2.268E+02                                 F               0         Z-component position of node 46 (blade 2, node 17), m
        139    3.330E+01                                 F               0         X-component position of node 47 (blade 2, node 18), m
        140   -1.717E+00                                 F               0         Y-component position of node 47 (blade 2, node 18), m
        141    2.306E+02                                 F               0         Z-component position of node 47 (blade 2, node 18), m
        142    3.414E+01                                 F               0         X-component position of node 48 (blade 2, node 19), m
        143   -1.484E+00                                 F               0         Y-component position of node 48 (blade 2, node 19), m
        144    2.344E+02                                 F               0         Z-component position of node 48 (blade 2, node 19), m
        145    3.498E+01                                 F               0         X-component position of node 49 (blade 2, node 20), m
        146   -1.250E+00                                 F               0         Y-component position of node 49 (blade 2, node 20), m
        147    2.382E+02                                 F               0         Z-component position of node 49 (blade 2, node 20), m
        148    3.581E+01                                 F               0         X-component position of node 50 (blade 2, node 21), m
        149   -1.017E+00                                 F               0         Y-component position of node 50 (blade 2, node 21), m
        150    2.419E+02                                 F               0         Z-component position of node 50 (blade 2, node 21), m
        151    3.665E+01                                 F               0         X-component position of node 51 (blade 2, node 22), m
        152   -7.829E-01                                 F               0         Y-component position of node 51 (blade 2, node 22), m
        153    2.457E+02                                 F               0         Z-component position of node 51 (blade 2, node 22), m
        154    3.749E+01                                 F               0         X-component position of node 52 (blade 2, node 23), m
        155   -5.494E-01                                 F               0         Y-component position of node 52 (blade 2, node 23), m
        156    2.495E+02                                 F               0         Z-component position of node 52 (blade 2, node 23), m
        157    3.833E+01                                 F               0         X-component position of node 53 (blade 2, node 24), m
        158   -3.158E-01                                 F               0         Y-component position of node 53 (blade 2, node 24), m
        159    2.532E+02                                 F               0         Z-component position of node 53 (blade 2, node 24), m
        160    3.916E+01                                 F               0         X-component position of node 54 (blade 2, node 25), m
        161   -8.221E-02                                 F               0         Y-component position of node 54 (blade 2, node 25), m
        162    2.570E+02                                 F               0         Z-component position of node 54 (blade 2, node 25), m
        163    4.000E+01                                 F               0         X-component position of node 55 (blade 2, node 26), m
        164    1.514E-01                                 F               0         Y-component position of node 55 (blade 2, node 26), m
        165    2.608E+02                                 F               0         Z-component position of node 55 (blade 2, node 26), m
        166    4.084E+01                                 F               0         X-component position of node 56 (blade 2, node 27), m
        167    3.850E-01                                 F               0         Y-component position of node 56 (blade 2, node 27), m
        168    2.645E+02                                 F               0         Z-component position of node 56 (blade 2, node 27), m
        169    4.155E+01                                 F               0         X-component position of node 57 (blade 2, node 28), m
        170    5.830E-01                                 F               0         Y-component position of node 57 (blade 2, node 28), m
        171    2.677E+02                                 F               0         Z-component position of node 57 (blade 2, node 28), m
        172    1.486E+01                                 F               0         X-component position of node 58 (blade 3, node 1), m
        173   -1.169E+01                                 F               0         Y-component position of node 58 (blade 3, node 1), m
        174    1.473E+02                                 F               0         Z-component position of node 58 (blade 3, node 1), m
        175    1.475E+01                                 F               0         X-component position of node 59 (blade 3, node 2), m
        176   -1.288E+01                                 F               0         Y-component position of node 59 (blade 3, node 2), m
        177    1.467E+02                                 F               0         Z-component position of node 59 (blade 3, node 2), m
        178    1.321E+01                                 F               0         X-component position of node 60 (blade 3, node 3), m
        179   -2.912E+01                                 F               0         Y-component position of node 60 (blade 3, node 3), m
        180    1.387E+02                                 F               0         Z-component position of node 60 (blade 3, node 3), m
        181    1.288E+01                                 F               0         X-component position of node 61 (blade 3, node 4), m
        182   -3.258E+01                                 F               0         Y-component position of node 61 (blade 3, node 4), m
        183    1.370E+02                                 F               0         Z-component position of node 61 (blade 3, node 4), m
        184    1.255E+01                                 F               0         X-component position of node 62 (blade 3, node 5), m
        185   -3.604E+01                                 F               0         Y-component position of node 62 (blade 3, node 5), m
        186    1.353E+02                                 F               0         Z-component position of node 62 (blade 3, node 5), m
        187    1.222E+01                                 F               0         X-component position of node 63 (blade 3, node 6), m
        188   -3.950E+01                                 F               0         Y-component position of node 63 (blade 3, node 6), m
        189    1.336E+02                                 F               0         Z-component position of node 63 (blade 3, node 6), m
        190    1.189E+01                                 F               0         X-component position of node 64 (blade 3, node 7), m
        191   -4.296E+01                                 F               0         Y-component position of node 64 (blade 3, node 7), m
        192    1.319E+02                                 F               0         Z-component position of node 64 (blade 3, node 7), m
        193    1.156E+01                                 F               0         X-component position of node 65 (blade 3, node 8), m
        194   -4.642E+01                                 F               0         Y-component position of node 65 (blade 3, node 8), m
        195    1.302E+02                                 F               0         Z-component position of node 65 (blade 3, node 8), m
        196    1.123E+01                                 F               0         X-component position of node 66 (blade 3, node 9), m
        197   -4.988E+01                                 F               0         Y-component position of node 66 (blade 3, node 9), m
        198    1.285E+02                                 F               0         Z-component position of node 66 (blade 3, node 9), m
        199    1.091E+01                                 F               0         X-component position of node 67 (blade 3, node 10), m
        200   -5.334E+01                                 F               0         Y-component position of node 67 (blade 3, node 10), m
        201    1.268E+02                                 F               0         Z-component position of node 67 (blade 3, node 10), m
        202    1.058E+01                                 F               0         X-component position of node 68 (blade 3, node 11), m
        203   -5.680E+01                                 F               0         Y-component position of node 68 (blade 3, node 11), m
        204    1.251E+02                                 F               0         Z-component position of node 68 (blade 3, node 11), m
        205    1.025E+01                                 F               0         X-component position of node 69 (blade 3, node 12), m
        206   -6.026E+01                                 F               0         Y-component position of node 69 (blade 3, node 12), m
        207    1.234E+02                                 F               0         Z-component position of node 69 (blade 3, node 12), m
        208    9.920E+00                                 F               0         X-component position of node 70 (blade 3, node 13), m
        209   -6.372E+01                                 F               0         Y-component position of node 70 (blade 3, node 13), m
        210    1.217E+02                                 F               0         Z-component position of node 70 (blade 3, node 13), m
        211    9.592E+00                                 F               0         X-component position of node 71 (blade 3, node 14), m