
Linearized model: Predictions were generated on 12-Feb-2024 at 18:31:58 using OpenFAST, compiled as a 64-bit application using single precision at commit v3.5.1
 linked with  NWTC Subroutine Library; ElastoDyn; InflowWind; AeroDyn; ServoDyn; HydroDyn; MAP++ (<1.20.10>, <Oct-20-2023>)

Description from the FAST input file: CCT-9 Campign 4 model. Input files to be run with OpenFAST 3.5.0. GitHub branch from Lu Wang (https://github.com/luwang00/openfast/tree/dev) compiled on March 7, 2023.

Simulation information:
   Simulation time:                  1006.4750 s
   Rotor Speed:                         1.0471 rad/s
   Azimuth:                             0.1603 rad
   Wind Speed:                         12.0000 m/s
   Number of continuous states:         0
   Number of discrete states:           0
   Number of constraint states:         0
   Number of inputs:                  303
   Number of outputs:                   1
   Jacobians included in this file?    No

Order of inputs:
     Column   Operating Point                     Rotating Frame? Derivative Order Description
   ---------- ---------------                     --------------- ---------------- -----------
          1   -1.080E+01                                 F               0         X-component position of node 1 (hub), m
          2    0.000E+00                                 F               0         Y-component position of node 1 (hub), m
          3    1.497E+02                                 F               0         Z-component position of node 1 (hub), m
          4    2.569E+01                                 F               0         X-component position of node 2 (blade 1, node 1), m
          5   -8.175E+00                                 F               0         Y-component position of node 2 (blade 1, node 1), m
          6    1.545E+02                                 F               0         Z-component position of node 2 (blade 1, node 1), m
          7    2.603E+01                                 F               0         X-component position of node 3 (blade 1, node 2), m
          8   -8.444E+00                                 F               0         Y-component position of node 3 (blade 1, node 2), m
          9    1.558E+02                                 F               0         Z-component position of node 3 (blade 1, node 2), m
         10    3.059E+01                                 F               0         X-component position of node 4 (blade 1, node 3), m
         11   -1.210E+01                                 F               0         Y-component position of node 4 (blade 1, node 3), m
         12    1.730E+02                                 F               0         Z-component position of node 4 (blade 1, node 3), m
         13    3.156E+01                                 F               0         X-component position of node 5 (blade 1, node 4), m
         14   -1.288E+01                                 F               0         Y-component position of node 5 (blade 1, node 4), m
         15    1.766E+02                                 F               0         Z-component position of node 5 (blade 1, node 4), m
         16    3.253E+01                                 F               0         X-component position of node 6 (blade 1, node 5), m
         17   -1.366E+01                                 F               0         Y-component position of node 6 (blade 1, node 5), m
         18    1.803E+02                                 F               0         Z-component position of node 6 (blade 1, node 5), m
         19    3.350E+01                                 F               0         X-component position of node 7 (blade 1, node 6), m
         20   -1.444E+01                                 F               0         Y-component position of node 7 (blade 1, node 6), m
         21    1.839E+02                                 F               0         Z-component position of node 7 (blade 1, node 6), m
         22    3.447E+01                                 F               0         X-component position of node 8 (blade 1, node 7), m
         23   -1.522E+01                                 F               0         Y-component position of node 8 (blade 1, node 7), m
         24    1.876E+02                                 F               0         Z-component position of node 8 (blade 1, node 7), m
         25    3.545E+01                                 F               0         X-component position of node 9 (blade 1, node 8), m
         26   -1.600E+01                                 F               0         Y-component position of node 9 (blade 1, node 8), m
         27    1.913E+02                                 F               0         Z-component position of node 9 (blade 1, node 8), m
         28    3.642E+01                                 F               0         X-component position of node 10 (blade 1, node 9), m
         29   -1.678E+01                                 F               0         Y-component position of node 10 (blade 1, node 9), m
         30    1.949E+02                                 F               0         Z-component position of node 10 (blade 1, node 9), m
         31    3.739E+01                                 F               0         X-component position of node 11 (blade 1, node 10), m
         32   -1.756E+01                                 F               0         Y-component position of node 11 (blade 1, node 10), m
         33    1.986E+02                                 F               0         Z-component position of node 11 (blade 1, node 10), m
         34    3.836E+01                                 F               0         X-component position of node 12 (blade 1, node 11), m
         35   -1.834E+01                                 F               0         Y-component position of node 12 (blade 1, node 11), m
         36    2.023E+02                                 F               0         Z-component position of node 12 (blade 1, node 11), m
         37    3.933E+01                                 F               0         X-component position of node 13 (blade 1, node 12), m
         38   -1.912E+01                                 F               0         Y-component position of node 13 (blade 1, node 12), m
         39    2.059E+02                                 F               0         Z-component position of node 13 (blade 1, node 12), m
         40    4.030E+01                                 F               0         X-component position of node 14 (blade 1, node 13), m
         41   -1.990E+01                                 F               0         Y-component position of node 14 (blade 1, node 13), m
         42    2.096E+02                                 F               0         Z-component position of node 14 (blade 1, node 13), m
         43    4.128E+01                                 F               0         X-component position of node 15 (blade 1, node 14), m
         44   -2.068E+01                                 F               0         Y-component position of node 15 (blade 1, node 14), m
         45    2.132E+02                                 F               0         Z-component position of node 15 (blade 1, node 14), m
         46    4.225E+01                                 F               0         X-component position of node 16 (blade 1, node 15), m
         47   -2.146E+01                                 F               0         Y-component position of node 16 (blade 1, node 15), m
         48    2.169E+02                                 F               0         Z-component position of node 16 (blade 1, node 15), m
         49    4.322E+01                                 F               0         X-component position of node 17 (blade 1, node 16), m
         50   -2.224E+01                                 F               0         Y-component position of node 17 (blade 1, node 16), m
         51    2.206E+02                                 F               0         Z-component position of node 17 (blade 1, node 16), m
         52    4.419E+01                                 F               0         X-component position of node 18 (blade 1, node 17), m
         53   -2.302E+01                                 F               0         Y-component position of node 18 (blade 1, node 17), m
         54    2.242E+02                                 F               0         Z-component position of node 18 (blade 1, node 17), m
         55    4.516E+01                                 F               0         X-component position of node 19 (blade 1, node 18), m
         56   -2.380E+01                                 F               0         Y-component position of node 19 (blade 1, node 18), m
         57    2.279E+02                                 F               0         Z-component position of node 19 (blade 1, node 18), m
         58    4.614E+01                                 F               0         X-component position of node 20 (blade 1, node 19), m
         59   -2.458E+01                                 F               0         Y-component position of node 20 (blade 1, node 19), m
         60    2.315E+02                                 F               0         Z-component position of node 20 (blade 1, node 19), m
         61    4.711E+01                                 F               0         X-component position of node 21 (blade 1, node 20), m
         62   -2.536E+01                                 F               0         Y-component position of node 21 (blade 1, node 20), m
         63    2.352E+02                                 F               0         Z-component position of node 21 (blade 1, node 20), m
         64    4.808E+01                                 F               0         X-component position of node 22 (blade 1, node 21), m
         65   -2.614E+01                                 F               0         Y-component position of node 22 (blade 1, node 21), m
         66    2.389E+02                                 F               0         Z-component position of node 22 (blade 1, node 21), m
         67    4.905E+01                                 F               0         X-component position of node 23 (blade 1, node 22), m
         68   -2.692E+01                                 F               0         Y-component position of node 23 (blade 1, node 22), m
         69    2.425E+02                                 F               0         Z-component position of node 23 (blade 1, node 22), m
         70    5.002E+01                                 F               0         X-component position of node 24 (blade 1, node 23), m
         71   -2.769E+01                                 F               0         Y-component position of node 24 (blade 1, node 23), m
         72    2.462E+02                                 F               0         Z-component position of node 24 (blade 1, node 23), m
         73    5.099E+01                                 F               0         X-component position of node 25 (blade 1, node 24), m
         74   -2.847E+01                                 F               0         Y-component position of node 25 (blade 1, node 24), m
         75    2.499E+02                                 F               0         Z-component position of node 25 (blade 1, node 24), m
         76    5.197E+01                                 F               0         X-component position of node 26 (blade 1, node 25), m
         77   -2.925E+01                                 F               0         Y-component position of node 26 (blade 1, node 25), m
         78    2.535E+02                                 F               0         Z-component position of node 26 (blade 1, node 25), m
         79    5.294E+01                                 F               0         X-component position of node 27 (blade 1, node 26), m
         80   -3.003E+01                                 F               0         Y-component position of node 27 (blade 1, node 26), m
         81    2.572E+02                                 F               0         Z-component position of node 27 (blade 1, node 26), m
         82    5.391E+01                                 F               0         X-component position of node 28 (blade 1, node 27), m
         83   -3.081E+01                                 F               0         Y-component position of node 28 (blade 1, node 27), m
         84    2.608E+02                                 F               0         Z-component position of node 28 (blade 1, node 27), m
         85    5.473E+01                                 F               0         X-component position of node 29 (blade 1, node 28), m
         86   -3.147E+01                                 F               0         Y-component position of node 29 (blade 1, node 28), m
         87    2.639E+02                                 F               0         Z-component position of node 29 (blade 1, node 28), m
         88    2.345E+01                                 F               0         X-component position of node 30 (blade 2, node 1), m
         89   -1.120E+01                                 F               0         Y-component position of node 30 (blade 2, node 1), m
         90    1.457E+02                                 F               0         Z-component position of node 30 (blade 2, node 1), m
         91    2.324E+01                                 F               0         X-component position of node 31 (blade 2, node 2), m
         92   -1.220E+01                                 F               0         Y-component position of node 31 (blade 2, node 2), m
         93    1.448E+02                                 F               0         Z-component position of node 31 (blade 2, node 2), m
         94    2.046E+01                                 F               0         X-component position of node 32 (blade 2, node 3), m
         95   -2.576E+01                                 F               0         Y-component position of node 32 (blade 2, node 3), m
         96    1.331E+02                                 F               0         Z-component position of node 32 (blade 2, node 3), m
         97    1.986E+01                                 F               0         X-component position of node 33 (blade 2, node 4), m
         98   -2.865E+01                                 F               0         Y-component position of node 33 (blade 2, node 4), m
         99    1.306E+02                                 F               0         Z-component position of node 33 (blade 2, node 4), m
        100    1.927E+01                                 F               0         X-component position of node 34 (blade 2, node 5), m
        101   -3.154E+01                                 F               0         Y-component position of node 34 (blade 2, node 5), m
        102    1.281E+02                                 F               0         Z-component position of node 34 (blade 2, node 5), m
        103    1.868E+01                                 F               0         X-component position of node 35 (blade 2, node 6), m
        104   -3.443E+01                                 F               0         Y-component position of node 35 (blade 2, node 6), m
        105    1.256E+02                                 F               0         Z-component position of node 35 (blade 2, node 6), m
        106    1.808E+01                                 F               0         X-component position of node 36 (blade 2, node 7), m
        107   -3.732E+01                                 F               0         Y-component position of node 36 (blade 2, node 7), m
        108    1.231E+02                                 F               0         Z-component position of node 36 (blade 2, node 7), m
        109    1.749E+01                                 F               0         X-component position of node 37 (blade 2, node 8), m
        110   -4.021E+01                                 F               0         Y-component position of node 37 (blade 2, node 8), m
        111    1.206E+02                                 F               0         Z-component position of node 37 (blade 2, node 8), m
        112    1.690E+01                                 F               0         X-component position of node 38 (blade 2, node 9), m
        113   -4.310E+01                                 F               0         Y-component position of node 38 (blade 2, node 9), m
        114    1.181E+02                                 F               0         Z-component position of node 38 (blade 2, node 9), m
        115    1.630E+01                                 F               0         X-component position of node 39 (blade 2, node 10), m
        116   -4.599E+01                                 F               0         Y-component position of node 39 (blade 2, node 10), m
        117    1.156E+02                                 F               0         Z-component position of node 39 (blade 2, node 10), m
        118    1.571E+01                                 F               0         X-component position of node 40 (blade 2, node 11), m
        119   -4.888E+01                                 F               0         Y-component position of node 40 (blade 2, node 11), m
        120    1.131E+02                                 F               0         Z-component position of node 40 (blade 2, node 11), m
        121    1.511E+01                                 F               0         X-component position of node 41 (blade 2, node 12), m
        122   -5.177E+01                                 F               0         Y-component position of node 41 (blade 2, node 12), m
        123    1.106E+02                                 F               0         Z-component position of node 41 (blade 2, node 12), m
        124    1.452E+01                                 F               0         X-component position of node 42 (blade 2, node 13), m
        125   -5.466E+01                                 F               0         Y-component position of node 42 (blade 2, node 13), m
        126    1.081E+02                                 F               0         Z-component position of node 42 (blade 2, node 13), m
        127    1.393E+01                                 F               0         X-component position of node 43 (blade 2, node 14), m
        128   -5.755E+01                                 F               0         Y-component position of node 43 (blade 2, node 14), m
        129    1.056E+02                                 F               0         Z-component position of node 43 (blade 2, node 14), m
        130    1.333E+01                                 F               0         X-component position of node 44 (blade 2, node 15), m
        131   -6.045E+01                                 F               0         Y-component position of node 44 (blade 2, node 15), m
        132    1.031E+02                                 F               0         Z-component position of node 44 (blade 2, node 15), m
        133    1.274E+01                                 F               0         X-component position of node 45 (blade 2, node 16), m
        134   -6.334E+01                                 F               0         Y-component position of node 45 (blade 2, node 16), m
        135    1.006E+02                                 F               0         Z-component position of node 45 (blade 2, node 16), m
        136    1.215E+01                                 F               0         X-component position of node 46 (blade 2, node 17), m
        137   -6.623E+01                                 F               0         Y-component position of node 46 (blade 2, node 17), m
        138    9.808E+01                                 F               0         Z-component position of node 46 (blade 2, node 17), m
        139    1.155E+01                                 F               0         X-component position of node 47 (blade 2, node 18), m
        140   -6.912E+01                                 F               0         Y-component position of node 47 (blade 2, node 18), m
        141    9.558E+01                                 F               0         Z-component position of node 47 (blade 2, node 18), m
        142    1.096E+01                                 F               0         X-component position of node 48 (blade 2, node 19), m
        143   -7.201E+01                                 F               0         Y-component position of node 48 (blade 2, node 19), m
        144    9.307E+01                                 F               0         Z-component position of node 48 (blade 2, node 19), m
        145    1.037E+01                                 F               0         X-component position of node 49 (blade 2, node 20), m
        146   -7.490E+01                                 F               0         Y-component position of node 49 (blade 2, node 20), m
        147    9.057E+01                                 F               0         Z-component position of node 49 (blade 2, node 20), m
        148    9.772E+00                                 F               0         X-component position of node 50 (blade 2, node 21), m
        149   -7.779E+01                                 F               0         Y-component position of node 50 (blade 2, node 21), m
        150    8.807E+01                                 F               0         Z-component position of node 50 (blade 2, node 21), m
        151    9.178E+00                                 F               0         X-component position of node 51 (blade 2, node 22), m
        152   -8.068E+01                                 F               0         Y-component position of node 51 (blade 2, node 22), m
        153    8.557E+01                                 F               0         Z-component position of node 51 (blade 2, node 22), m
        154    8.585E+00                                 F               0         X-component position of node 52 (blade 2, node 23), m
        155   -8.357E+01                                 F               0         Y-component position of node 52 (blade 2, node 23), m
        156    8.307E+01                                 F               0         Z-component position of node 52 (blade 2, node 23), m
        157    7.991E+00                                 F               0         X-component position of node 53 (blade 2, node 24), m
        158   -8.646E+01                                 F               0         Y-component position of node 53 (blade 2, node 24), m
        159    8.057E+01                                 F               0         Z-component position of node 53 (blade 2, node 24), m
        160    7.398E+00                                 F               0         X-component position of node 54 (blade 2, node 25), m
        161   -8.935E+01                                 F               0         Y-component position of node 54 (blade 2, node 25), m
        162    7.807E+01                                 F               0         Z-component position of node 54 (blade 2, node 25), m
        163    6.804E+00                                 F               0         X-component position of node 55 (blade 2, node 26), m
        164   -9.224E+01                                 F               0         Y-component position of node 55 (blade 2, node 26), m
        165    7.557E+01                                 F               0         Z-component position of node 55 (blade 2, node 26), m
        166    6.210E+00                                 F               0         X-component position of node 56 (blade 2, node 27), m
        167   -9.513E+01                                 F               0         Y-component position of node 56 (blade 2, node 27), m
        168    7.307E+01                                 F               0         Z-component position of node 56 (blade 2, node 27), m
        169    5.707E+00                                 F               0         X-component position of node 57 (blade 2, node 28), m
        170   -9.758E+01                                 F               0         Y-component position of node 57 (blade 2, node 28), m
        171    7.095E+01                                 F               0         Z-component position of node 57 (blade 2, node 28), m
        172    2.376E+01                                 F               0         X-component position of node 58 (blade 3, node 1), m
        173   -1.802E+00                                 F               0         Y-component position of node 58 (blade 3, node 1), m
        174    1.476E+02                                 F               0         Z-component position of node 58 (blade 3, node 1), m
        175    2.363E+01                                 F               0         X-component position of node 59 (blade 3, node 2), m
        176   -5.350E-01                                 F               0         Y-component position of node 59 (blade 3, node 2), m
        177    1.472E+02                                 F               0         Z-component position of node 59 (blade 3, node 2), m
        178    2.185E+01                                 F               0         X-component position of node 60 (blade 3, node 3), m
        179    1.669E+01                                 F               0         Y-component position of node 60 (blade 3, node 3), m
        180    1.418E+02                                 F               0         Z-component position of node 60 (blade 3, node 3), m
        181    2.147E+01                                 F               0         X-component position of node 61 (blade 3, node 4), m
        182    2.036E+01                                 F               0         Y-component position of node 61 (blade 3, node 4), m
        183    1.406E+02                                 F               0         Z-component position of node 61 (blade 3, node 4), m
        184    2.110E+01                                 F               0         X-component position of node 62 (blade 3, node 5), m
        185    2.403E+01                                 F               0         Y-component position of node 62 (blade 3, node 5), m
        186    1.394E+02                                 F               0         Z-component position of node 62 (blade 3, node 5), m
        187    2.072E+01                                 F               0         X-component position of node 63 (blade 3, node 6), m
        188    2.770E+01                                 F               0         Y-component position of node 63 (blade 3, node 6), m
        189    1.383E+02                                 F               0         Z-component position of node 63 (blade 3, node 6), m
        190    2.034E+01                                 F               0         X-component position of node 64 (blade 3, node 7), m
        191    3.137E+01                                 F               0         Y-component position of node 64 (blade 3, node 7), m
        192    1.371E+02                                 F               0         Z-component position of node 64 (blade 3, node 7), m
        193    1.996E+01                                 F               0         X-component position of node 65 (blade 3, node 8), m
        194    3.504E+01                                 F               0         Y-component position of node 65 (blade 3, node 8), m
        195    1.359E+02                                 F               0         Z-component position of node 65 (blade 3, node 8), m
        196    1.958E+01                                 F               0         X-component position of node 66 (blade 3, node 9), m
        197    3.871E+01                                 F               0         Y-component position of node 66 (blade 3, node 9), m
        198    1.348E+02                                 F               0         Z-component position of node 66 (blade 3, node 9), m
        199    1.921E+01                                 F               0         X-component position of node 67 (blade 3, node 10), m
        200    4.238E+01                                 F               0         Y-component position of node 67 (blade 3, node 10), m
        201    1.336E+02                                 F               0         Z-component position of node 67 (blade 3, node 10), m
        202    1.883E+01                                 F               0         X-component position of node 68 (blade 3, node 11), m
        203    4.605E+01                                 F               0         Y-component position of node 68 (blade 3, node 11), m
        204    1.325E+02                                 F               0         Z-component position of node 68 (blade 3, node 11), m
        205    1.845E+01                                 F               0         X-component position of node 69 (blade 3, node 12), m
        206    4.972E+01                                 F               0         Y-component position of node 69 (blade 3, node 12), m
        207    1.313E+02                                 F               0         Z-component position of node 69 (blade 3, node 12), m
        208    1.807E+01                                 F               0         X-component position of node 70 (blade 3, node 13), m
        209    5.339E+01                                 F               0         Y-component position of node 70 (blade 3, node 13), m
        210    1.301E+02                                 F               0         Z-component position of node 70 (blade 3, node 13), m
        211    1.769E+01                                 F               0         X-component position of node 71 (blade 3, node 14), m