
Linearized model: Predictions were generated on 30-Jan-2024 at 18:20:32 using OpenFAST, compiled as a 64-bit application using single precision at commit v3.5.1
 linked with  NWTC Subroutine Library; ElastoDyn; InflowWind; AeroDyn; ServoDyn; HydroDyn; MAP++ (<1.20.10>, <Oct-20-2023>)

Description from the FAST input file: CCT-9 Campign 4 model. Input files to be run with OpenFAST 3.5.0. GitHub branch from Lu Wang (https://github.com/luwang00/openfast/tree/dev) compiled on March 7, 2023.

Simulation information:
   Simulation time:                   506.1750 s
   Rotor Speed:                         0.8795 rad/s
   Azimuth:                             4.3076 rad
   Wind Speed:                         10.0000 m/s
   Number of continuous states:        14
   Number of discrete states:           0
   Number of constraint states:         0
   Number of inputs:                 1890
   Number of outputs:                  19
   Jacobians included in this file?    No

Order of continuous states:
   Row/Column Operating Point                     Rotating Frame? Derivative Order Description
   ---------- ---------------                     --------------- ---------------- -----------
          1    8.864E+00                                 F               2         Platform horizontal surge translation DOF (internal DOF index = DOF_Sg), m
          2   -3.545E-01                                 F               2         Platform horizontal sway translation DOF (internal DOF index = DOF_Sw), m
          3   -1.582E-01                                 F               2         Platform vertical heave translation DOF (internal DOF index = DOF_Hv), m
          4    4.271E-02                                 F               2         Platform roll tilt rotation DOF (internal DOF index = DOF_R), rad
          5    1.155E-01                                 F               2         Platform pitch tilt rotation DOF (internal DOF index = DOF_P), rad
          6    7.371E-03                                 F               2         Platform yaw rotation DOF (internal DOF index = DOF_Y), rad
          7    2.737E+00                                 F               2         Variable speed generator DOF (internal DOF index = DOF_GeAz), rad
          8   -4.463E-03                                 F               2         First time derivative of Platform horizontal surge translation DOF (internal DOF index = DOF_Sg), m/s
          9   -1.265E-04                                 F               2         First time derivative of Platform horizontal sway translation DOF (internal DOF index = DOF_Sw), m/s
         10    4.496E-03                                 F               2         First time derivative of Platform vertical heave translation DOF (internal DOF index = DOF_Hv), m/s
         11    3.035E-04                                 F               2         First time derivative of Platform roll tilt rotation DOF (internal DOF index = DOF_R), rad/s
         12    2.025E-05                                 F               2         First time derivative of Platform pitch tilt rotation DOF (internal DOF index = DOF_P), rad/s
         13   -7.236E-05                                 F               2         First time derivative of Platform yaw rotation DOF (internal DOF index = DOF_Y), rad/s
         14    8.795E-01                                 F               2         First time derivative of Variable speed generator DOF (internal DOF index = DOF_GeAz), rad/s

Order of continuous state derivatives:
   Row/Column Operating Point                     Rotating Frame? Derivative Order Description
   ---------- ---------------                     --------------- ---------------- -----------
          1   -4.463E-03                                 F               2         First time derivative of Platform horizontal surge translation DOF (internal DOF index = DOF_Sg), m/s
          2   -1.265E-04                                 F               2         First time derivative of Platform horizontal sway translation DOF (internal DOF index = DOF_Sw), m/s
          3    4.496E-03                                 F               2         First time derivative of Platform vertical heave translation DOF (internal DOF index = DOF_Hv), m/s
          4    3.035E-04                                 F               2         First time derivative of Platform roll tilt rotation DOF (internal DOF index = DOF_R), rad/s
          5    2.025E-05                                 F               2         First time derivative of Platform pitch tilt rotation DOF (internal DOF index = DOF_P), rad/s
          6   -7.236E-05                                 F               2         First time derivative of Platform yaw rotation DOF (internal DOF index = DOF_Y), rad/s
          7    8.795E-01                                 F               2         First time derivative of Variable speed generator DOF (internal DOF index = DOF_GeAz), rad/s
          8   -3.094E-04                                 F               2         First time derivative of First time derivative of Platform horizontal surge translation DOF (internal DOF index = DOF_Sg), m/s/s
          9   -3.388E-04                                 F               2         First time derivative of First time derivative of Platform horizontal sway translation DOF (internal DOF index = DOF_Sw), m/s/s
         10   -2.409E-04                                 F               2         First time derivative of First time derivative of Platform vertical heave translation DOF (internal DOF index = DOF_Hv), m/s/s
         11    6.047E-05                                 F               2         First time derivative of First time derivative of Platform roll tilt rotation DOF (internal DOF index = DOF_R), rad/s/s
         12   -8.308E-06                                 F               2         First time derivative of First time derivative of Platform pitch tilt rotation DOF (internal DOF index = DOF_P), rad/s/s
         13   -6.191E-06                                 F               2         First time derivative of First time derivative of Platform yaw rotation DOF (internal DOF index = DOF_Y), rad/s/s
         14   -6.269E-05                                 F               2         First time derivative of First time derivative of Variable speed generator DOF (internal DOF index = DOF_GeAz), rad/s/s

Order of inputs:
     Column   Operating Point                     Rotating Frame? Derivative Order Description
   ---------- ---------------                     --------------- ---------------- -----------
          1    5.836E+01                                 F               0         Blade 1 X force, node 1, N
          2   -1.319E+01                                 F               0         Blade 1 Y force, node 1, N
          3   -5.106E+01                                 F               0         Blade 1 Z force, node 1, N
          4    2.778E+02                                 F               0         Blade 1 X force, node 2, N
          5   -2.485E+01                                 F               0         Blade 1 Y force, node 2, N
          6   -1.402E+02                                 F               0         Blade 1 Z force, node 2, N
          7    4.011E+02                                 F               0         Blade 1 X force, node 3, N
          8   -2.153E+00                                 F               0         Blade 1 Y force, node 3, N
          9   -1.110E+02                                 F               0         Blade 1 Z force, node 3, N
         10    5.541E+02                                 F               0         Blade 1 X force, node 4, N
         11    1.783E+01                                 F               0         Blade 1 Y force, node 4, N
         12   -9.690E+01                                 F               0         Blade 1 Z force, node 4, N
         13    7.071E+02                                 F               0         Blade 1 X force, node 5, N
         14    3.782E+01                                 F               0         Blade 1 Y force, node 5, N
         15   -8.284E+01                                 F               0         Blade 1 Z force, node 5, N
         16    8.601E+02                                 F               0         Blade 1 X force, node 6, N
         17    5.780E+01                                 F               0         Blade 1 Y force, node 6, N
         18   -6.877E+01                                 F               0         Blade 1 Z force, node 6, N
         19    1.013E+03                                 F               0         Blade 1 X force, node 7, N
         20    7.779E+01                                 F               0         Blade 1 Y force, node 7, N
         21   -5.471E+01                                 F               0         Blade 1 Z force, node 7, N
         22    1.166E+03                                 F               0         Blade 1 X force, node 8, N
         23    9.778E+01                                 F               0         Blade 1 Y force, node 8, N
         24   -4.064E+01                                 F               0         Blade 1 Z force, node 8, N
         25    1.319E+03                                 F               0         Blade 1 X force, node 9, N
         26    1.178E+02                                 F               0         Blade 1 Y force, node 9, N
         27   -2.658E+01                                 F               0         Blade 1 Z force, node 9, N
         28    1.472E+03                                 F               0         Blade 1 X force, node 10, N
         29    1.377E+02                                 F               0         Blade 1 Y force, node 10, N
         30   -1.251E+01                                 F               0         Blade 1 Z force, node 10, N
         31    1.625E+03                                 F               0         Blade 1 X force, node 11, N
         32    1.577E+02                                 F               0         Blade 1 Y force, node 11, N
         33    1.553E+00                                 F               0         Blade 1 Z force, node 11, N
         34    1.778E+03                                 F               0         Blade 1 X force, node 12, N
         35    1.777E+02                                 F               0         Blade 1 Y force, node 12, N
         36    1.562E+01                                 F               0         Blade 1 Z force, node 12, N
         37    1.931E+03                                 F               0         Blade 1 X force, node 13, N
         38    1.977E+02                                 F               0         Blade 1 Y force, node 13, N
         39    2.968E+01                                 F               0         Blade 1 Z force, node 13, N
         40    2.084E+03                                 F               0         Blade 1 X force, node 14, N
         41    2.177E+02                                 F               0         Blade 1 Y force, node 14, N
         42    4.375E+01                                 F               0         Blade 1 Z force, node 14, N
         43    2.237E+03                                 F               0         Blade 1 X force, node 15, N
         44    2.377E+02                                 F               0         Blade 1 Y force, node 15, N
         45    5.781E+01                                 F               0         Blade 1 Z force, node 15, N
         46    2.390E+03                                 F               0         Blade 1 X force, node 16, N
         47    2.577E+02                                 F               0         Blade 1 Y force, node 16, N
         48    7.188E+01                                 F               0         Blade 1 Z force, node 16, N
         49    2.949E+03                                 F               0         Blade 1 X force, node 17, N
         50    3.208E+02                                 F               0         Blade 1 Y force, node 17, N
         51    9.662E+01                                 F               0         Blade 1 Z force, node 17, N
         52    2.252E+03                                 F               0         Blade 1 X force, node 18, N
         53    2.375E+02                                 F               0         Blade 1 Y force, node 18, N
         54    5.350E+01                                 F               0         Blade 1 Z force, node 18, N
         55    2.762E+03                                 F               0         Blade 1 X force, node 19, N
         56    2.793E+02                                 F               0         Blade 1 Y force, node 19, N
         57    3.299E+01                                 F               0         Blade 1 Z force, node 19, N
         58    2.354E+03                                 F               0         Blade 1 X force, node 20, N
         59    2.285E+02                                 F               0         Blade 1 Y force, node 20, N
         60    2.419E+00                                 F               0         Blade 1 Z force, node 20, N
         61    3.474E+03                                 F               0         Blade 1 X force, node 21, N
         62    3.218E+02                                 F               0         Blade 1 Y force, node 21, N
         63   -3.848E+01                                 F               0         Blade 1 Z force, node 21, N
         64    3.065E+03                                 F               0         Blade 1 X force, node 22, N
         65    2.709E+02                                 F               0         Blade 1 Y force, node 22, N
         66   -6.901E+01                                 F               0         Blade 1 Z force, node 22, N
         67    3.147E+03                                 F               0         Blade 1 X force, node 23, N
         68    2.666E+02                                 F               0         Blade 1 Y force, node 23, N
         69   -1.023E+02                                 F               0         Blade 1 Z force, node 23, N
         70    3.285E+03                                 F               0         Blade 1 X force, node 24, N
         71    2.668E+02                                 F               0         Blade 1 Y force, node 24, N
         72   -1.377E+02                                 F               0         Blade 1 Z force, node 24, N
         73    3.365E+03                                 F               0         Blade 1 X force, node 25, N
         74    2.624E+02                                 F               0         Blade 1 Y force, node 25, N
         75   -1.708E+02                                 F               0         Blade 1 Z force, node 25, N
         76    3.463E+03                                 F               0         Blade 1 X force, node 26, N
         77    2.594E+02                                 F               0         Blade 1 Y force, node 26, N
         78   -2.046E+02                                 F               0         Blade 1 Z force, node 26, N
         79    4.148E+03                                 F               0         Blade 1 X force, node 27, N
         80    2.980E+02                                 F               0         Blade 1 Y force, node 27, N
         81   -2.797E+02                                 F               0         Blade 1 Z force, node 27, N
         82    3.074E+03                                 F               0         Blade 1 X force, node 28, N
         83    2.121E+02                                 F               0         Blade 1 Y force, node 28, N
         84   -2.310E+02                                 F               0         Blade 1 Z force, node 28, N
         85    3.759E+03                                 F               0         Blade 1 X force, node 29, N
         86    2.507E+02                                 F               0         Blade 1 Y force, node 29, N
         87   -3.059E+02                                 F               0         Blade 1 Z force, node 29, N
         88    3.197E+03                                 F               0         Blade 1 X force, node 30, N
         89    2.062E+02                                 F               0         Blade 1 Y force, node 30, N
         90   -2.791E+02                                 F               0         Blade 1 Z force, node 30, N
         91    4.618E+03                                 F               0         Blade 1 X force, node 31, N
         92    2.866E+02                                 F               0         Blade 1 Y force, node 31, N
         93   -4.337E+02                                 F               0         Blade 1 Z force, node 31, N
         94    4.055E+03                                 F               0         Blade 1 X force, node 32, N
         95    2.421E+02                                 F               0         Blade 1 Y force, node 32, N
         96   -4.068E+02                                 F               0         Blade 1 Z force, node 32, N
         97    4.153E+03                                 F               0         Blade 1 X force, node 33, N
         98    2.392E+02                                 F               0         Blade 1 Y force, node 33, N
         99   -4.402E+02                                 F               0         Blade 1 Z force, node 33, N
        100    4.252E+03                                 F               0         Blade 1 X force, node 34, N
        101    2.364E+02                                 F               0         Blade 1 Y force, node 34, N
        102   -4.738E+02                                 F               0         Blade 1 Z force, node 34, N
        103    4.351E+03                                 F               0         Blade 1 X force, node 35, N
        104    2.337E+02                                 F               0         Blade 1 Y force, node 35, N
        105   -5.073E+02                                 F               0         Blade 1 Z force, node 35, N
        106    4.449E+03                                 F               0         Blade 1 X force, node 36, N
        107    2.309E+02                                 F               0         Blade 1 Y force, node 36, N
        108   -5.406E+02                                 F               0         Blade 1 Z force, node 36, N
        109    5.321E+03                                 F               0         Blade 1 X force, node 37, N
        110    2.663E+02                                 F               0         Blade 1 Y force, node 37, N
        111   -6.731E+02                                 F               0         Blade 1 Z force, node 37, N
        112    3.874E+03                                 F               0         Blade 1 X force, node 38, N
        113    1.872E+02                                 F               0         Blade 1 Y force, node 38, N
        114   -5.082E+02                                 F               0         Blade 1 Z force, node 38, N
        115    4.747E+03                                 F               0         Blade 1 X force, node 39, N
        116    2.227E+02                                 F               0         Blade 1 Y force, node 39, N
        117   -6.408E+02                                 F               0         Blade 1 Z force, node 39, N
        118    4.047E+03                                 F               0         Blade 1 X force, node 40, N
        119    1.844E+02                                 F               0         Blade 1 Y force, node 40, N
        120   -5.611E+02                                 F               0         Blade 1 Z force, node 40, N
        121    5.747E+03                                 F               0         Blade 1 X force, node 41, N
        122    2.530E+02                                 F               0         Blade 1 Y force, node 41, N
        123   -8.206E+02                                 F               0         Blade 1 Z force, node 41, N
        124    5.045E+03                                 F               0         Blade 1 X force, node 42, N
        125    2.146E+02                                 F               0         Blade 1 Y force, node 42, N
        126   -7.407E+02                                 F               0         Blade 1 Z force, node 42, N
        127    5.143E+03                                 F               0         Blade 1 X force, node 43, N
        128    2.119E+02                                 F               0         Blade 1 Y force, node 43, N
        129   -7.739E+02                                 F               0         Blade 1 Z force, node 43, N
        130    5.270E+03                                 F               0         Blade 1 X force, node 44, N
        131    2.103E+02                                 F               0         Blade 1 Y force, node 44, N
        132   -8.114E+02                                 F               0         Blade 1 Z force, node 44, N
        133    5.313E+03                                 F               0         Blade 1 X force, node 45, N
        134    2.054E+02                                 F               0         Blade 1 Y force, node 45, N
        135   -8.359E+02                                 F               0         Blade 1 Z force, node 45, N
        136    5.440E+03                                 F               0         Blade 1 X force, node 46, N
        137    2.039E+02                                 F               0         Blade 1 Y force, node 46, N
        138   -8.733E+02                                 F               0         Blade 1 Z force, node 46, N
        139    6.510E+03                                 F               0         Blade 1 X force, node 47, N
        140    2.360E+02                                 F               0         Blade 1 Y force, node 47, N
        141   -1.067E+03                                 F               0         Blade 1 Z force, node 47, N
        142    4.666E+03                                 F               0         Blade 1 X force, node 48, N
        143    1.637E+02                                 F               0         Blade 1 Y force, node 48, N
        144   -7.792E+02                                 F               0         Blade 1 Z force, node 48, N
        145    5.736E+03                                 F               0         Blade 1 X force, node 49, N
        146    1.959E+02                                 F               0         Blade 1 Y force, node 49, N
        147   -9.726E+02                                 F               0         Blade 1 Z force, node 49, N
        148    4.907E+03                                 F               0         Blade 1 X force, node 50, N
        149    1.630E+02                                 F               0         Blade 1 Y force, node 50, N
        150   -8.443E+02                                 F               0         Blade 1 Z force, node 50, N
        151    6.861E+03                                 F               0         Blade 1 X force, node 51, N
        152    2.208E+02                                 F               0         Blade 1 Y force, node 51, N
        153   -1.200E+03                                 F               0         Blade 1 Z force, node 51, N
        154    6.034E+03                                 F               0         Blade 1 X force, node 52, N
        155    1.881E+02                                 F               0         Blade 1 Y force, node 52, N
        156   -1.072E+03                                 F               0         Blade 1 Z force, node 52, N
        157    6.134E+03                                 F               0         Blade 1 X force, node 53, N
        158    1.855E+02                                 F               0         Blade 1 Y force, node 53, N
        159   -1.105E+03                                 F               0         Blade 1 Z force, node 53, N
        160    6.303E+03                                 F               0         Blade 1 X force, node 54, N
        161    1.850E+02                                 F               0         Blade 1 Y force, node 54, N
        162   -1.151E+03                                 F               0         Blade 1 Z force, node 54, N
        163    6.266E+03                                 F               0         Blade 1 X force, node 55, N
        164    1.784E+02                                 F               0         Blade 1 Y force, node 55, N
        165   -1.159E+03                                 F               0         Blade 1 Z force, node 55, N
        166    6.435E+03                                 F               0         Blade 1 X force, node 56, N
        167    1.779E+02                                 F               0         Blade 1 Y force, node 56, N
        168   -1.205E+03                                 F               0         Blade 1 Z force, node 56, N
        169    7.717E+03                                 F               0         Blade 1 X force, node 57, N
        170    2.066E+02                                 F               0         Blade 1 Y force, node 57, N
        171   -1.463E+03                                 F               0         Blade 1 Z force, node 57, N
        172    5.452E+03                                 F               0         Blade 1 X force, node 58, N
        173    1.415E+02                                 F               0         Blade 1 Y force, node 58, N
        174   -1.046E+03                                 F               0         Blade 1 Z force, node 58, N
        175    6.735E+03                                 F               0         Blade 1 X force, node 59, N
        176    1.703E+02                                 F               0         Blade 1 Y force, node 59, N
        177   -1.304E+03                                 F               0         Blade 1 Z force, node 59, N
        178    5.789E+03                                 F               0         Blade 1 X force, node 60, N
        179    1.425E+02                                 F               0         Blade 1 Y force, node 60, N
        180   -1.131E+03                                 F               0         Blade 1 Z force, node 60, N
        181    7.981E+03                                 F               0         Blade 1 X force, node 61, N
        182    1.905E+02                                 F               0         Blade 1 Y force, node 61, N
        183   -1.576E+03                                 F               0         Blade 1 Z force, node 61, N
        184    7.033E+03                                 F               0         Blade 1 X force, node 62, N
        185    1.626E+02                                 F               0         Blade 1 Y force, node 62, N
        186   -1.403E+03                                 F               0         Blade 1 Z force, node 62, N
        187    7.132E+03                                 F               0         Blade 1 X force, node 63, N
        188    1.600E+02                                 F               0         Blade 1 Y force, node 63, N
        189   -1.436E+03                                 F               0         Blade 1 Z force, node 63, N
        190    7.351E+03                                 F               0         Blade 1 X force, node 64, N
        191    1.600E+02                                 F               0         Blade 1 Y force, node 64, N
        192   -1.493E+03                                 F               0         Blade 1 Z force, node 64, N
        193    7.211E+03                                 F               0         Blade 1 X force, node 65, N
        194    1.524E+02                                 F               0         Blade 1 Y force, node 65, N
        195   -1.477E+03                                 F               0         Blade 1 Z force, node 65, N
        196    7.434E+03                                 F               0         Blade 1 X force, node 66, N
        197    1.525E+02                                 F               0         Blade 1 Y force, node 66, N
        198   -1.535E+03                                 F               0         Blade 1 Z force, node 66, N
        199    8.939E+03                                 F               0         Blade 1 X force, node 67, N
        200    1.777E+02                                 F               0         Blade 1 Y force, node 67, N
        201   -1.862E+03                                 F               0         Blade 1 Z force, node 67, N
        202    6.233E+03                                 F               0         Blade 1 X force, node 68, N
        203    1.200E+02                                 F               0         Blade 1 Y force, node 68, N
        204   -1.309E+03                                 F               0         Blade 1 Z force, node 68, N
        205    7.737E+03                                 F               0         Blade 1 X force, node 69, N
        206    1.451E+02                                 F               0         Blade 1 Y force, node 69, N
        207   -1.635E+03                                 F               0         Blade 1 Z force, node 69, N
        208    6.684E+03                                 F               0         Blade 1 X force, node 70, N
        209    1.220E+02                                 F               0         Blade 1 Y force, node 70, N
        210   -1.421E+03                                 F               0         Blade 1 Z force, node 70, N