
Linearized model: Predictions were generated on 30-Jan-2024 at 18:20:32 using OpenFAST, compiled as a 64-bit application using single precision at commit v3.5.1
 linked with  NWTC Subroutine Library; ElastoDyn; InflowWind; AeroDyn; ServoDyn; HydroDyn; MAP++ (<1.20.10>, <Oct-20-2023>)

Description from the FAST input file: CCT-9 Campign 4 model. Input files to be run with OpenFAST 3.5.0. GitHub branch from Lu Wang (https://github.com/luwang00/openfast/tree/dev) compiled on March 7, 2023.

Simulation information:
   Simulation time:                   500.5000 s
   Rotor Speed:                         0.8797 rad/s
   Azimuth:                             5.5999 rad
   Wind Speed:                         10.0000 m/s
   Number of continuous states:         0
   Number of discrete states:           0
   Number of constraint states:         0
   Number of inputs:                  303
   Number of outputs:                   1
   Jacobians included in this file?    No

Order of inputs:
     Column   Operating Point                     Rotating Frame? Derivative Order Description
   ---------- ---------------                     --------------- ---------------- -----------
          1   -1.080E+01                                 F               0         X-component position of node 1 (hub), m
          2    0.000E+00                                 F               0         Y-component position of node 1 (hub), m
          3    1.497E+02                                 F               0         Z-component position of node 1 (hub), m
          4    1.625E+01                                 F               0         X-component position of node 2 (blade 1, node 1), m
          5   -3.391E+00                                 F               0         Y-component position of node 2 (blade 1, node 1), m
          6    1.540E+02                                 F               0         Z-component position of node 2 (blade 1, node 1), m
          7    1.647E+01                                 F               0         X-component position of node 3 (blade 1, node 2), m
          8   -2.591E+00                                 F               0         Y-component position of node 3 (blade 1, node 2), m
          9    1.551E+02                                 F               0         Z-component position of node 3 (blade 1, node 2), m
         10    1.948E+01                                 F               0         X-component position of node 4 (blade 1, node 3), m
         11    8.291E+00                                 F               0         Y-component position of node 4 (blade 1, node 3), m
         12    1.693E+02                                 F               0         Z-component position of node 4 (blade 1, node 3), m
         13    2.012E+01                                 F               0         X-component position of node 5 (blade 1, node 4), m
         14    1.061E+01                                 F               0         Y-component position of node 5 (blade 1, node 4), m
         15    1.723E+02                                 F               0         Z-component position of node 5 (blade 1, node 4), m
         16    2.076E+01                                 F               0         X-component position of node 6 (blade 1, node 5), m
         17    1.293E+01                                 F               0         Y-component position of node 6 (blade 1, node 5), m
         18    1.753E+02                                 F               0         Z-component position of node 6 (blade 1, node 5), m
         19    2.140E+01                                 F               0         X-component position of node 7 (blade 1, node 6), m
         20    1.525E+01                                 F               0         Y-component position of node 7 (blade 1, node 6), m
         21    1.784E+02                                 F               0         Z-component position of node 7 (blade 1, node 6), m
         22    2.204E+01                                 F               0         X-component position of node 8 (blade 1, node 7), m
         23    1.757E+01                                 F               0         Y-component position of node 8 (blade 1, node 7), m
         24    1.814E+02                                 F               0         Z-component position of node 8 (blade 1, node 7), m
         25    2.269E+01                                 F               0         X-component position of node 9 (blade 1, node 8), m
         26    1.988E+01                                 F               0         Y-component position of node 9 (blade 1, node 8), m
         27    1.844E+02                                 F               0         Z-component position of node 9 (blade 1, node 8), m
         28    2.333E+01                                 F               0         X-component position of node 10 (blade 1, node 9), m
         29    2.220E+01                                 F               0         Y-component position of node 10 (blade 1, node 9), m
         30    1.875E+02                                 F               0         Z-component position of node 10 (blade 1, node 9), m
         31    2.397E+01                                 F               0         X-component position of node 11 (blade 1, node 10), m
         32    2.452E+01                                 F               0         Y-component position of node 11 (blade 1, node 10), m
         33    1.905E+02                                 F               0         Z-component position of node 11 (blade 1, node 10), m
         34    2.461E+01                                 F               0         X-component position of node 12 (blade 1, node 11), m
         35    2.684E+01                                 F               0         Y-component position of node 12 (blade 1, node 11), m
         36    1.935E+02                                 F               0         Z-component position of node 12 (blade 1, node 11), m
         37    2.525E+01                                 F               0         X-component position of node 13 (blade 1, node 12), m
         38    2.916E+01                                 F               0         Y-component position of node 13 (blade 1, node 12), m
         39    1.965E+02                                 F               0         Z-component position of node 13 (blade 1, node 12), m
         40    2.589E+01                                 F               0         X-component position of node 14 (blade 1, node 13), m
         41    3.148E+01                                 F               0         Y-component position of node 14 (blade 1, node 13), m
         42    1.996E+02                                 F               0         Z-component position of node 14 (blade 1, node 13), m
         43    2.653E+01                                 F               0         X-component position of node 15 (blade 1, node 14), m
         44    3.379E+01                                 F               0         Y-component position of node 15 (blade 1, node 14), m
         45    2.026E+02                                 F               0         Z-component position of node 15 (blade 1, node 14), m
         46    2.717E+01                                 F               0         X-component position of node 16 (blade 1, node 15), m
         47    3.611E+01                                 F               0         Y-component position of node 16 (blade 1, node 15), m
         48    2.056E+02                                 F               0         Z-component position of node 16 (blade 1, node 15), m
         49    2.781E+01                                 F               0         X-component position of node 17 (blade 1, node 16), m
         50    3.843E+01                                 F               0         Y-component position of node 17 (blade 1, node 16), m
         51    2.087E+02                                 F               0         Z-component position of node 17 (blade 1, node 16), m
         52    2.846E+01                                 F               0         X-component position of node 18 (blade 1, node 17), m
         53    4.075E+01                                 F               0         Y-component position of node 18 (blade 1, node 17), m
         54    2.117E+02                                 F               0         Z-component position of node 18 (blade 1, node 17), m
         55    2.910E+01                                 F               0         X-component position of node 19 (blade 1, node 18), m
         56    4.307E+01                                 F               0         Y-component position of node 19 (blade 1, node 18), m
         57    2.147E+02                                 F               0         Z-component position of node 19 (blade 1, node 18), m
         58    2.974E+01                                 F               0         X-component position of node 20 (blade 1, node 19), m
         59    4.539E+01                                 F               0         Y-component position of node 20 (blade 1, node 19), m
         60    2.177E+02                                 F               0         Z-component position of node 20 (blade 1, node 19), m
         61    3.038E+01                                 F               0         X-component position of node 21 (blade 1, node 20), m
         62    4.771E+01                                 F               0         Y-component position of node 21 (blade 1, node 20), m
         63    2.208E+02                                 F               0         Z-component position of node 21 (blade 1, node 20), m
         64    3.102E+01                                 F               0         X-component position of node 22 (blade 1, node 21), m
         65    5.002E+01                                 F               0         Y-component position of node 22 (blade 1, node 21), m
         66    2.238E+02                                 F               0         Z-component position of node 22 (blade 1, node 21), m
         67    3.166E+01                                 F               0         X-component position of node 23 (blade 1, node 22), m
         68    5.234E+01                                 F               0         Y-component position of node 23 (blade 1, node 22), m
         69    2.268E+02                                 F               0         Z-component position of node 23 (blade 1, node 22), m
         70    3.230E+01                                 F               0         X-component position of node 24 (blade 1, node 23), m
         71    5.466E+01                                 F               0         Y-component position of node 24 (blade 1, node 23), m
         72    2.299E+02                                 F               0         Z-component position of node 24 (blade 1, node 23), m
         73    3.294E+01                                 F               0         X-component position of node 25 (blade 1, node 24), m
         74    5.698E+01                                 F               0         Y-component position of node 25 (blade 1, node 24), m
         75    2.329E+02                                 F               0         Z-component position of node 25 (blade 1, node 24), m
         76    3.358E+01                                 F               0         X-component position of node 26 (blade 1, node 25), m
         77    5.930E+01                                 F               0         Y-component position of node 26 (blade 1, node 25), m
         78    2.359E+02                                 F               0         Z-component position of node 26 (blade 1, node 25), m
         79    3.423E+01                                 F               0         X-component position of node 27 (blade 1, node 26), m
         80    6.162E+01                                 F               0         Y-component position of node 27 (blade 1, node 26), m
         81    2.389E+02                                 F               0         Z-component position of node 27 (blade 1, node 26), m
         82    3.487E+01                                 F               0         X-component position of node 28 (blade 1, node 27), m
         83    6.394E+01                                 F               0         Y-component position of node 28 (blade 1, node 27), m
         84    2.420E+02                                 F               0         Z-component position of node 28 (blade 1, node 27), m
         85    3.541E+01                                 F               0         X-component position of node 29 (blade 1, node 28), m
         86    6.590E+01                                 F               0         Y-component position of node 29 (blade 1, node 28), m
         87    2.445E+02                                 F               0         Z-component position of node 29 (blade 1, node 28), m
         88    1.555E+01                                 F               0         X-component position of node 30 (blade 2, node 1), m
         89   -1.221E+01                                 F               0         Y-component position of node 30 (blade 2, node 1), m
         90    1.503E+02                                 F               0         Z-component position of node 30 (blade 2, node 1), m
         91    1.560E+01                                 F               0         X-component position of node 31 (blade 2, node 2), m
         92   -1.354E+01                                 F               0         Y-component position of node 31 (blade 2, node 2), m
         93    1.505E+02                                 F               0         Z-component position of node 31 (blade 2, node 2), m
         94    1.632E+01                                 F               0         X-component position of node 32 (blade 2, node 3), m
         95   -3.156E+01                                 F               0         Y-component position of node 32 (blade 2, node 3), m
         96    1.525E+02                                 F               0         Z-component position of node 32 (blade 2, node 3), m
         97    1.648E+01                                 F               0         X-component position of node 33 (blade 2, node 4), m
         98   -3.540E+01                                 F               0         Y-component position of node 33 (blade 2, node 4), m
         99    1.530E+02                                 F               0         Z-component position of node 33 (blade 2, node 4), m
        100    1.663E+01                                 F               0         X-component position of node 34 (blade 2, node 5), m
        101   -3.924E+01                                 F               0         Y-component position of node 34 (blade 2, node 5), m
        102    1.534E+02                                 F               0         Z-component position of node 34 (blade 2, node 5), m
        103    1.679E+01                                 F               0         X-component position of node 35 (blade 2, node 6), m
        104   -4.308E+01                                 F               0         Y-component position of node 35 (blade 2, node 6), m
        105    1.538E+02                                 F               0         Z-component position of node 35 (blade 2, node 6), m
        106    1.694E+01                                 F               0         X-component position of node 36 (blade 2, node 7), m
        107   -4.692E+01                                 F               0         Y-component position of node 36 (blade 2, node 7), m
        108    1.543E+02                                 F               0         Z-component position of node 36 (blade 2, node 7), m
        109    1.709E+01                                 F               0         X-component position of node 37 (blade 2, node 8), m
        110   -5.076E+01                                 F               0         Y-component position of node 37 (blade 2, node 8), m
        111    1.547E+02                                 F               0         Z-component position of node 37 (blade 2, node 8), m
        112    1.725E+01                                 F               0         X-component position of node 38 (blade 2, node 9), m
        113   -5.460E+01                                 F               0         Y-component position of node 38 (blade 2, node 9), m
        114    1.551E+02                                 F               0         Z-component position of node 38 (blade 2, node 9), m
        115    1.740E+01                                 F               0         X-component position of node 39 (blade 2, node 10), m
        116   -5.844E+01                                 F               0         Y-component position of node 39 (blade 2, node 10), m
        117    1.556E+02                                 F               0         Z-component position of node 39 (blade 2, node 10), m
        118    1.755E+01                                 F               0         X-component position of node 40 (blade 2, node 11), m
        119   -6.228E+01                                 F               0         Y-component position of node 40 (blade 2, node 11), m
        120    1.560E+02                                 F               0         Z-component position of node 40 (blade 2, node 11), m
        121    1.771E+01                                 F               0         X-component position of node 41 (blade 2, node 12), m
        122   -6.612E+01                                 F               0         Y-component position of node 41 (blade 2, node 12), m
        123    1.565E+02                                 F               0         Z-component position of node 41 (blade 2, node 12), m
        124    1.786E+01                                 F               0         X-component position of node 42 (blade 2, node 13), m
        125   -6.996E+01                                 F               0         Y-component position of node 42 (blade 2, node 13), m
        126    1.569E+02                                 F               0         Z-component position of node 42 (blade 2, node 13), m
        127    1.801E+01                                 F               0         X-component position of node 43 (blade 2, node 14), m
        128   -7.380E+01                                 F               0         Y-component position of node 43 (blade 2, node 14), m
        129    1.573E+02                                 F               0         Z-component position of node 43 (blade 2, node 14), m
        130    1.817E+01                                 F               0         X-component position of node 44 (blade 2, node 15), m
        131   -7.764E+01                                 F               0         Y-component position of node 44 (blade 2, node 15), m
        132    1.578E+02                                 F               0         Z-component position of node 44 (blade 2, node 15), m
        133    1.832E+01                                 F               0         X-component position of node 45 (blade 2, node 16), m
        134   -8.148E+01                                 F               0         Y-component position of node 45 (blade 2, node 16), m
        135    1.582E+02                                 F               0         Z-component position of node 45 (blade 2, node 16), m
        136    1.847E+01                                 F               0         X-component position of node 46 (blade 2, node 17), m
        137   -8.532E+01                                 F               0         Y-component position of node 46 (blade 2, node 17), m
        138    1.586E+02                                 F               0         Z-component position of node 46 (blade 2, node 17), m
        139    1.863E+01                                 F               0         X-component position of node 47 (blade 2, node 18), m
        140   -8.916E+01                                 F               0         Y-component position of node 47 (blade 2, node 18), m
        141    1.591E+02                                 F               0         Z-component position of node 47 (blade 2, node 18), m
        142    1.878E+01                                 F               0         X-component position of node 48 (blade 2, node 19), m
        143   -9.300E+01                                 F               0         Y-component position of node 48 (blade 2, node 19), m
        144    1.595E+02                                 F               0         Z-component position of node 48 (blade 2, node 19), m
        145    1.893E+01                                 F               0         X-component position of node 49 (blade 2, node 20), m
        146   -9.684E+01                                 F               0         Y-component position of node 49 (blade 2, node 20), m
        147    1.600E+02                                 F               0         Z-component position of node 49 (blade 2, node 20), m
        148    1.909E+01                                 F               0         X-component position of node 50 (blade 2, node 21), m
        149   -1.007E+02                                 F               0         Y-component position of node 50 (blade 2, node 21), m
        150    1.604E+02                                 F               0         Z-component position of node 50 (blade 2, node 21), m
        151    1.924E+01                                 F               0         X-component position of node 51 (blade 2, node 22), m
        152   -1.045E+02                                 F               0         Y-component position of node 51 (blade 2, node 22), m
        153    1.608E+02                                 F               0         Z-component position of node 51 (blade 2, node 22), m
        154    1.939E+01                                 F               0         X-component position of node 52 (blade 2, node 23), m
        155   -1.084E+02                                 F               0         Y-component position of node 52 (blade 2, node 23), m
        156    1.613E+02                                 F               0         Z-component position of node 52 (blade 2, node 23), m
        157    1.955E+01                                 F               0         X-component position of node 53 (blade 2, node 24), m
        158   -1.122E+02                                 F               0         Y-component position of node 53 (blade 2, node 24), m
        159    1.617E+02                                 F               0         Z-component position of node 53 (blade 2, node 24), m
        160    1.970E+01                                 F               0         X-component position of node 54 (blade 2, node 25), m
        161   -1.160E+02                                 F               0         Y-component position of node 54 (blade 2, node 25), m
        162    1.621E+02                                 F               0         Z-component position of node 54 (blade 2, node 25), m
        163    1.986E+01                                 F               0         X-component position of node 55 (blade 2, node 26), m
        164   -1.199E+02                                 F               0         Y-component position of node 55 (blade 2, node 26), m
        165    1.626E+02                                 F               0         Z-component position of node 55 (blade 2, node 26), m
        166    2.001E+01                                 F               0         X-component position of node 56 (blade 2, node 27), m
        167   -1.237E+02                                 F               0         Y-component position of node 56 (blade 2, node 27), m
        168    1.630E+02                                 F               0         Z-component position of node 56 (blade 2, node 27), m
        169    2.014E+01                                 F               0         X-component position of node 57 (blade 2, node 28), m
        170   -1.270E+02                                 F               0         Y-component position of node 57 (blade 2, node 28), m
        171    1.634E+02                                 F               0         Z-component position of node 57 (blade 2, node 28), m
        172    1.419E+01                                 F               0         X-component position of node 58 (blade 3, node 1), m
        173   -4.533E+00                                 F               0         Y-component position of node 58 (blade 3, node 1), m
        174    1.447E+02                                 F               0         Z-component position of node 58 (blade 3, node 1), m
        175    1.392E+01                                 F               0         X-component position of node 59 (blade 3, node 2), m
        176   -4.008E+00                                 F               0         Y-component position of node 59 (blade 3, node 2), m
        177    1.435E+02                                 F               0         Z-component position of node 59 (blade 3, node 2), m
        178    1.019E+01                                 F               0         X-component position of node 60 (blade 3, node 3), m
        179    3.132E+00                                 F               0         Y-component position of node 60 (blade 3, node 3), m
        180    1.273E+02                                 F               0         Z-component position of node 60 (blade 3, node 3), m
        181    9.395E+00                                 F               0         X-component position of node 61 (blade 3, node 4), m
        182    4.653E+00                                 F               0         Y-component position of node 61 (blade 3, node 4), m
        183    1.238E+02                                 F               0         Z-component position of node 61 (blade 3, node 4), m
        184    8.600E+00                                 F               0         X-component position of node 62 (blade 3, node 5), m
        185    6.175E+00                                 F               0         Y-component position of node 62 (blade 3, node 5), m
        186    1.203E+02                                 F               0         Z-component position of node 62 (blade 3, node 5), m
        187    7.805E+00                                 F               0         X-component position of node 63 (blade 3, node 6), m
        188    7.696E+00                                 F               0         Y-component position of node 63 (blade 3, node 6), m
        189    1.169E+02                                 F               0         Z-component position of node 63 (blade 3, node 6), m
        190    7.011E+00                                 F               0         X-component position of node 64 (blade 3, node 7), m
        191    9.217E+00                                 F               0         Y-component position of node 64 (blade 3, node 7), m
        192    1.134E+02                                 F               0         Z-component position of node 64 (blade 3, node 7), m
        193    6.216E+00                                 F               0         X-component position of node 65 (blade 3, node 8), m
        194    1.074E+01                                 F               0         Y-component position of node 65 (blade 3, node 8), m
        195    1.099E+02                                 F               0         Z-component position of node 65 (blade 3, node 8), m
        196    5.421E+00                                 F               0         X-component position of node 66 (blade 3, node 9), m
        197    1.226E+01                                 F               0         Y-component position of node 66 (blade 3, node 9), m
        198    1.065E+02                                 F               0         Z-component position of node 66 (blade 3, node 9), m
        199    4.627E+00                                 F               0         X-component position of node 67 (blade 3, node 10), m
        200    1.378E+01                                 F               0         Y-component position of node 67 (blade 3, node 10), m
        201    1.030E+02                                 F               0         Z-component position of node 67 (blade 3, node 10), m
        202    3.832E+00                                 F               0         X-component position of node 68 (blade 3, node 11), m
        203    1.530E+01                                 F               0         Y-component position of node 68 (blade 3, node 11), m
        204    9.953E+01                                 F               0         Z-component position of node 68 (blade 3, node 11), m
        205    3.037E+00                                 F               0         X-component position of node 69 (blade 3, node 12), m
        206    1.682E+01                                 F               0         Y-component position of node 69 (blade 3, node 12), m
        207    9.606E+01                                 F               0         Z-component position of node 69 (blade 3, node 12), m
        208    2.243E+00                                 F               0         X-component position of node 70 (blade 3, node 13), m
        209    1.835E+01                                 F               0         Y-component position of node 70 (blade 3, node 13), m
        210    9.260E+01                                 F               0         Z-component position of node 70 (blade 3, node 13), m
        211    1.448E+00                                 F               0         X-component position of node 71 (blade 3, node 14), m