
Linearized model: Predictions were generated on 30-Jan-2024 at 18:20:32 using OpenFAST, compiled as a 64-bit application using single precision at commit v3.5.1
 linked with  NWTC Subroutine Library; ElastoDyn; InflowWind; AeroDyn; ServoDyn; HydroDyn; MAP++ (<1.20.10>, <Oct-20-2023>)

Description from the FAST input file: CCT-9 Campign 4 model. Input files to be run with OpenFAST 3.5.0. GitHub branch from Lu Wang (https://github.com/luwang00/openfast/tree/dev) compiled on March 7, 2023.

Simulation information:
   Simulation time:                   500.0000 s
   Rotor Speed:                         0.8798 rad/s
   Azimuth:                             5.1600 rad
   Wind Speed:                         10.0000 m/s
   Number of continuous states:        14
   Number of discrete states:           0
   Number of constraint states:         0
   Number of inputs:                 1890
   Number of outputs:                  19
   Jacobians included in this file?    No

Order of continuous states:
   Row/Column Operating Point                     Rotating Frame? Derivative Order Description
   ---------- ---------------                     --------------- ---------------- -----------
          1    8.886E+00                                 F               2         Platform horizontal surge translation DOF (internal DOF index = DOF_Sg), m
          2   -3.643E-01                                 F               2         Platform horizontal sway translation DOF (internal DOF index = DOF_Sw), m
          3   -1.716E-01                                 F               2         Platform vertical heave translation DOF (internal DOF index = DOF_Hv), m
          4    4.252E-02                                 F               2         Platform roll tilt rotation DOF (internal DOF index = DOF_R), rad
          5    1.154E-01                                 F               2         Platform pitch tilt rotation DOF (internal DOF index = DOF_P), rad
          6    7.565E-03                                 F               2         Platform yaw rotation DOF (internal DOF index = DOF_Y), rad
          7    3.589E+00                                 F               2         Variable speed generator DOF (internal DOF index = DOF_GeAz), rad
          8   -2.601E-03                                 F               2         First time derivative of Platform horizontal surge translation DOF (internal DOF index = DOF_Sg), m/s
          9    2.356E-03                                 F               2         First time derivative of Platform horizontal sway translation DOF (internal DOF index = DOF_Sw), m/s
         10   -1.901E-03                                 F               2         First time derivative of Platform vertical heave translation DOF (internal DOF index = DOF_Hv), m/s
         11   -1.970E-04                                 F               2         First time derivative of Platform roll tilt rotation DOF (internal DOF index = DOF_R), rad/s
         12    1.396E-05                                 F               2         First time derivative of Platform pitch tilt rotation DOF (internal DOF index = DOF_P), rad/s
         13    2.498E-05                                 F               2         First time derivative of Platform yaw rotation DOF (internal DOF index = DOF_Y), rad/s
         14    8.798E-01                                 F               2         First time derivative of Variable speed generator DOF (internal DOF index = DOF_GeAz), rad/s

Order of continuous state derivatives:
   Row/Column Operating Point                     Rotating Frame? Derivative Order Description
   ---------- ---------------                     --------------- ---------------- -----------
          1   -2.601E-03                                 F               2         First time derivative of Platform horizontal surge translation DOF (internal DOF index = DOF_Sg), m/s
          2    2.356E-03                                 F               2         First time derivative of Platform horizontal sway translation DOF (internal DOF index = DOF_Sw), m/s
          3   -1.901E-03                                 F               2         First time derivative of Platform vertical heave translation DOF (internal DOF index = DOF_Hv), m/s
          4   -1.970E-04                                 F               2         First time derivative of Platform roll tilt rotation DOF (internal DOF index = DOF_R), rad/s
          5    1.396E-05                                 F               2         First time derivative of Platform pitch tilt rotation DOF (internal DOF index = DOF_P), rad/s
          6    2.498E-05                                 F               2         First time derivative of Platform yaw rotation DOF (internal DOF index = DOF_Y), rad/s
          7    8.798E-01                                 F               2         First time derivative of Variable speed generator DOF (internal DOF index = DOF_GeAz), rad/s
          8   -4.415E-04                                 F               2         First time derivative of First time derivative of Platform horizontal surge translation DOF (internal DOF index = DOF_Sg), m/s/s
          9    2.808E-05                                 F               2         First time derivative of First time derivative of Platform horizontal sway translation DOF (internal DOF index = DOF_Sw), m/s/s
         10    1.178E-03                                 F               2         First time derivative of First time derivative of Platform vertical heave translation DOF (internal DOF index = DOF_Hv), m/s/s
         11    5.091E-05                                 F               2         First time derivative of First time derivative of Platform roll tilt rotation DOF (internal DOF index = DOF_R), rad/s/s
         12   -3.852E-07                                 F               2         First time derivative of First time derivative of Platform pitch tilt rotation DOF (internal DOF index = DOF_P), rad/s/s
         13   -2.226E-05                                 F               2         First time derivative of First time derivative of Platform yaw rotation DOF (internal DOF index = DOF_Y), rad/s/s
         14   -1.907E-04                                 F               2         First time derivative of First time derivative of Variable speed generator DOF (internal DOF index = DOF_GeAz), rad/s/s

Order of inputs:
     Column   Operating Point                     Rotating Frame? Derivative Order Description
   ---------- ---------------                     --------------- ---------------- -----------
          1    5.820E+01                                 F               0         Blade 1 X force, node 1, N
          2    1.955E+01                                 F               0         Blade 1 Y force, node 1, N
          3   -4.884E+01                                 F               0         Blade 1 Z force, node 1, N
          4    2.749E+02                                 F               0         Blade 1 X force, node 2, N
          5    4.293E+01                                 F               0         Blade 1 Y force, node 2, N
          6   -1.359E+02                                 F               0         Blade 1 Z force, node 2, N
          7    3.927E+02                                 F               0         Blade 1 X force, node 3, N
          8    1.786E+01                                 F               0         Blade 1 Y force, node 3, N
          9   -1.108E+02                                 F               0         Blade 1 Z force, node 3, N
         10    5.400E+02                                 F               0         Blade 1 X force, node 4, N
         11   -2.535E+00                                 F               0         Blade 1 Y force, node 4, N
         12   -1.004E+02                                 F               0         Blade 1 Z force, node 4, N
         13    6.872E+02                                 F               0         Blade 1 X force, node 5, N
         14   -2.293E+01                                 F               0         Blade 1 Y force, node 5, N
         15   -8.993E+01                                 F               0         Blade 1 Z force, node 5, N
         16    8.344E+02                                 F               0         Blade 1 X force, node 6, N
         17   -4.333E+01                                 F               0         Blade 1 Y force, node 6, N
         18   -7.950E+01                                 F               0         Blade 1 Z force, node 6, N
         19    9.817E+02                                 F               0         Blade 1 X force, node 7, N
         20   -6.373E+01                                 F               0         Blade 1 Y force, node 7, N
         21   -6.907E+01                                 F               0         Blade 1 Z force, node 7, N
         22    1.129E+03                                 F               0         Blade 1 X force, node 8, N
         23   -8.412E+01                                 F               0         Blade 1 Y force, node 8, N
         24   -5.864E+01                                 F               0         Blade 1 Z force, node 8, N
         25    1.276E+03                                 F               0         Blade 1 X force, node 9, N
         26   -1.045E+02                                 F               0         Blade 1 Y force, node 9, N
         27   -4.821E+01                                 F               0         Blade 1 Z force, node 9, N
         28    1.423E+03                                 F               0         Blade 1 X force, node 10, N
         29   -1.249E+02                                 F               0         Blade 1 Y force, node 10, N
         30   -3.778E+01                                 F               0         Blade 1 Z force, node 10, N
         31    1.571E+03                                 F               0         Blade 1 X force, node 11, N
         32   -1.453E+02                                 F               0         Blade 1 Y force, node 11, N
         33   -2.735E+01                                 F               0         Blade 1 Z force, node 11, N
         34    1.718E+03                                 F               0         Blade 1 X force, node 12, N
         35   -1.657E+02                                 F               0         Blade 1 Y force, node 12, N
         36   -1.692E+01                                 F               0         Blade 1 Z force, node 12, N
         37    1.865E+03                                 F               0         Blade 1 X force, node 13, N
         38   -1.861E+02                                 F               0         Blade 1 Y force, node 13, N
         39   -6.487E+00                                 F               0         Blade 1 Z force, node 13, N
         40    2.012E+03                                 F               0         Blade 1 X force, node 14, N
         41   -2.065E+02                                 F               0         Blade 1 Y force, node 14, N
         42    3.943E+00                                 F               0         Blade 1 Z force, node 14, N
         43    2.160E+03                                 F               0         Blade 1 X force, node 15, N
         44   -2.269E+02                                 F               0         Blade 1 Y force, node 15, N
         45    1.437E+01                                 F               0         Blade 1 Z force, node 15, N
         46    2.307E+03                                 F               0         Blade 1 X force, node 16, N
         47   -2.473E+02                                 F               0         Blade 1 Y force, node 16, N
         48    2.480E+01                                 F               0         Blade 1 Z force, node 16, N
         49    2.845E+03                                 F               0         Blade 1 X force, node 17, N
         50   -3.089E+02                                 F               0         Blade 1 Y force, node 17, N
         51    3.808E+01                                 F               0         Blade 1 Z force, node 17, N
         52    2.172E+03                                 F               0         Blade 1 X force, node 18, N
         53   -2.261E+02                                 F               0         Blade 1 Y force, node 18, N
         54    1.051E+01                                 F               0         Blade 1 Z force, node 18, N
         55    2.662E+03                                 F               0         Blade 1 X force, node 19, N
         56   -2.615E+02                                 F               0         Blade 1 Y force, node 19, N
         57   -1.702E+01                                 F               0         Blade 1 Z force, node 19, N
         58    2.267E+03                                 F               0         Blade 1 X force, node 20, N
         59   -2.104E+02                                 F               0         Blade 1 Y force, node 20, N
         60   -3.807E+01                                 F               0         Blade 1 Z force, node 20, N
         61    3.343E+03                                 F               0         Blade 1 X force, node 21, N
         62   -2.903E+02                                 F               0         Blade 1 Y force, node 21, N
         63   -9.469E+01                                 F               0         Blade 1 Z force, node 21, N
         64    2.948E+03                                 F               0         Blade 1 X force, node 22, N
         65   -2.393E+02                                 F               0         Blade 1 Y force, node 22, N
         66   -1.156E+02                                 F               0         Blade 1 Z force, node 22, N
         67    3.026E+03                                 F               0         Blade 1 X force, node 23, N
         68   -2.306E+02                                 F               0         Blade 1 Y force, node 23, N
         69   -1.473E+02                                 F               0         Blade 1 Z force, node 23, N
         70    3.157E+03                                 F               0         Blade 1 X force, node 24, N
         71   -2.259E+02                                 F               0         Blade 1 Y force, node 24, N
         72   -1.820E+02                                 F               0         Blade 1 Z force, node 24, N
         73    3.233E+03                                 F               0         Blade 1 X force, node 25, N
         74   -2.172E+02                                 F               0         Blade 1 Y force, node 25, N
         75   -2.136E+02                                 F               0         Blade 1 Z force, node 25, N
         76    3.328E+03                                 F               0         Blade 1 X force, node 26, N
         77   -2.098E+02                                 F               0         Blade 1 Y force, node 26, N
         78   -2.461E+02                                 F               0         Blade 1 Z force, node 26, N
         79    3.985E+03                                 F               0         Blade 1 X force, node 27, N
         80   -2.348E+02                                 F               0         Blade 1 Y force, node 27, N
         81   -3.262E+02                                 F               0         Blade 1 Z force, node 27, N
         82    2.953E+03                                 F               0         Blade 1 X force, node 28, N
         83   -1.627E+02                                 F               0         Blade 1 Y force, node 28, N
         84   -2.633E+02                                 F               0         Blade 1 Z force, node 28, N
         85    3.611E+03                                 F               0         Blade 1 X force, node 29, N
         86   -1.878E+02                                 F               0         Blade 1 Y force, node 29, N
         87   -3.434E+02                                 F               0         Blade 1 Z force, node 29, N
         88    3.071E+03                                 F               0         Blade 1 X force, node 30, N
         89   -1.507E+02                                 F               0         Blade 1 Y force, node 30, N
         90   -3.092E+02                                 F               0         Blade 1 Z force, node 30, N
         91    4.434E+03                                 F               0         Blade 1 X force, node 31, N
         92   -2.031E+02                                 F               0         Blade 1 Y force, node 31, N
         93   -4.745E+02                                 F               0         Blade 1 Z force, node 31, N
         94    3.894E+03                                 F               0         Blade 1 X force, node 32, N
         95   -1.661E+02                                 F               0         Blade 1 Y force, node 32, N
         96   -4.402E+02                                 F               0         Blade 1 Z force, node 32, N
         97    3.988E+03                                 F               0         Blade 1 X force, node 33, N
         98   -1.589E+02                                 F               0         Blade 1 Y force, node 33, N
         99   -4.724E+02                                 F               0         Blade 1 Z force, node 33, N
        100    4.082E+03                                 F               0         Blade 1 X force, node 34, N
        101   -1.517E+02                                 F               0         Blade 1 Y force, node 34, N
        102   -5.046E+02                                 F               0         Blade 1 Z force, node 34, N
        103    4.177E+03                                 F               0         Blade 1 X force, node 35, N
        104   -1.445E+02                                 F               0         Blade 1 Y force, node 35, N
        105   -5.368E+02                                 F               0         Blade 1 Z force, node 35, N
        106    4.271E+03                                 F               0         Blade 1 X force, node 36, N
        107   -1.374E+02                                 F               0         Blade 1 Y force, node 36, N
        108   -5.688E+02                                 F               0         Blade 1 Z force, node 36, N
        109    5.107E+03                                 F               0         Blade 1 X force, node 37, N
        110   -1.516E+02                                 F               0         Blade 1 Y force, node 37, N
        111   -7.044E+02                                 F               0         Blade 1 Z force, node 37, N
        112    3.719E+03                                 F               0         Blade 1 X force, node 38, N
        113   -1.018E+02                                 F               0         Blade 1 Y force, node 38, N
        114   -5.294E+02                                 F               0         Blade 1 Z force, node 38, N
        115    4.556E+03                                 F               0         Blade 1 X force, node 39, N
        116   -1.161E+02                                 F               0         Blade 1 Y force, node 39, N
        117   -6.651E+02                                 F               0         Blade 1 Z force, node 39, N
        118    3.884E+03                                 F               0         Blade 1 X force, node 40, N
        119   -9.193E+01                                 F               0         Blade 1 Y force, node 40, N
        120   -5.805E+02                                 F               0         Blade 1 Z force, node 40, N
        121    5.514E+03                                 F               0         Blade 1 X force, node 41, N
        122   -1.192E+02                                 F               0         Blade 1 Y force, node 41, N
        123   -8.459E+02                                 F               0         Blade 1 Z force, node 41, N
        124    4.841E+03                                 F               0         Blade 1 X force, node 42, N
        125   -9.501E+01                                 F               0         Blade 1 Y force, node 42, N
        126   -7.611E+02                                 F               0         Blade 1 Z force, node 42, N
        127    4.935E+03                                 F               0         Blade 1 X force, node 43, N
        128   -8.796E+01                                 F               0         Blade 1 Y force, node 43, N
        129   -7.929E+02                                 F               0         Blade 1 Z force, node 43, N
        130    5.056E+03                                 F               0         Blade 1 X force, node 44, N
        131   -8.134E+01                                 F               0         Blade 1 Y force, node 44, N
        132   -8.292E+02                                 F               0         Blade 1 Z force, node 44, N
        133    5.097E+03                                 F               0         Blade 1 X force, node 45, N
        134   -7.351E+01                                 F               0         Blade 1 Y force, node 45, N
        135   -8.523E+02                                 F               0         Blade 1 Z force, node 45, N
        136    5.219E+03                                 F               0         Blade 1 X force, node 46, N
        137   -6.694E+01                                 F               0         Blade 1 Y force, node 46, N
        138   -8.885E+02                                 F               0         Blade 1 Z force, node 46, N
        139    6.245E+03                                 F               0         Blade 1 X force, node 47, N
        140   -6.984E+01                                 F               0         Blade 1 Y force, node 47, N
        141   -1.083E+03                                 F               0         Blade 1 Z force, node 47, N
        142    4.476E+03                                 F               0         Blade 1 X force, node 48, N
        143   -4.309E+01                                 F               0         Blade 1 Y force, node 48, N
        144   -7.895E+02                                 F               0         Blade 1 Z force, node 48, N
        145    5.502E+03                                 F               0         Blade 1 X force, node 49, N
        146   -4.601E+01                                 F               0         Blade 1 Y force, node 49, N
        147   -9.839E+02                                 F               0         Blade 1 Z force, node 49, N
        148    4.707E+03                                 F               0         Blade 1 X force, node 50, N
        149   -3.351E+01                                 F               0         Blade 1 Y force, node 50, N
        150   -8.529E+02                                 F               0         Blade 1 Z force, node 50, N
        151    6.581E+03                                 F               0         Blade 1 X force, node 51, N
        152   -3.764E+01                                 F               0         Blade 1 Y force, node 51, N
        153   -1.210E+03                                 F               0         Blade 1 Z force, node 51, N
        154    5.788E+03                                 F               0         Blade 1 X force, node 52, N
        155   -2.522E+01                                 F               0         Blade 1 Y force, node 52, N
        156   -1.079E+03                                 F               0         Blade 1 Z force, node 52, N
        157    5.884E+03                                 F               0         Blade 1 X force, node 53, N
        158   -1.834E+01                                 F               0         Blade 1 Y force, node 53, N
        159   -1.111E+03                                 F               0         Blade 1 Z force, node 53, N
        160    6.045E+03                                 F               0         Blade 1 X force, node 54, N
        161   -1.155E+01                                 F               0         Blade 1 Y force, node 54, N
        162   -1.156E+03                                 F               0         Blade 1 Z force, node 54, N
        163    6.010E+03                                 F               0         Blade 1 X force, node 55, N
        164   -4.479E+00                                 F               0         Blade 1 Y force, node 55, N
        165   -1.162E+03                                 F               0         Blade 1 Z force, node 55, N
        166    6.171E+03                                 F               0         Blade 1 X force, node 56, N
        167    2.296E+00                                 F               0         Blade 1 Y force, node 56, N
        168   -1.207E+03                                 F               0         Blade 1 Z force, node 56, N
        169    7.401E+03                                 F               0         Blade 1 X force, node 57, N
        170    1.138E+01                                 F               0         Blade 1 Y force, node 57, N
        171   -1.464E+03                                 F               0         Blade 1 Z force, node 57, N
        172    5.229E+03                                 F               0         Blade 1 X force, node 58, N
        173    1.383E+01                                 F               0         Blade 1 Y force, node 58, N
        174   -1.045E+03                                 F               0         Blade 1 Z force, node 58, N
        175    6.459E+03                                 F               0         Blade 1 X force, node 59, N
        176    2.290E+01                                 F               0         Blade 1 Y force, node 59, N
        177   -1.302E+03                                 F               0         Blade 1 Z force, node 59, N
        178    5.551E+03                                 F               0         Blade 1 X force, node 60, N
        179    2.466E+01                                 F               0         Blade 1 Y force, node 60, N
        180   -1.129E+03                                 F               0         Blade 1 Z force, node 60, N
        181    7.653E+03                                 F               0         Blade 1 X force, node 61, N
        182    4.175E+01                                 F               0         Blade 1 Y force, node 61, N
        183   -1.571E+03                                 F               0         Blade 1 Z force, node 61, N
        184    6.744E+03                                 F               0         Blade 1 X force, node 62, N
        185    4.352E+01                                 F               0         Blade 1 Y force, node 62, N
        186   -1.398E+03                                 F               0         Blade 1 Z force, node 62, N
        187    6.838E+03                                 F               0         Blade 1 X force, node 63, N
        188    5.040E+01                                 F               0         Blade 1 Y force, node 63, N
        189   -1.429E+03                                 F               0         Blade 1 Z force, node 63, N
        190    7.049E+03                                 F               0         Blade 1 X force, node 64, N
        191    5.827E+01                                 F               0         Blade 1 Y force, node 64, N
        192   -1.485E+03                                 F               0         Blade 1 Z force, node 64, N
        193    6.914E+03                                 F               0         Blade 1 X force, node 65, N
        194    6.310E+01                                 F               0         Blade 1 Y force, node 65, N
        195   -1.468E+03                                 F               0         Blade 1 Z force, node 65, N
        196    7.127E+03                                 F               0         Blade 1 X force, node 66, N
        197    7.090E+01                                 F               0         Blade 1 Y force, node 66, N
        198   -1.525E+03                                 F               0         Blade 1 Z force, node 66, N
        199    8.571E+03                                 F               0         Blade 1 X force, node 67, N
        200    9.266E+01                                 F               0         Blade 1 Y force, node 67, N
        201   -1.848E+03                                 F               0         Blade 1 Z force, node 67, N
        202    5.976E+03                                 F               0         Blade 1 X force, node 68, N
        203    6.957E+01                                 F               0         Blade 1 Y force, node 68, N
        204   -1.298E+03                                 F               0         Blade 1 Z force, node 68, N
        205    7.417E+03                                 F               0         Blade 1 X force, node 69, N
        206    9.138E+01                                 F               0         Blade 1 Y force, node 69, N
        207   -1.621E+03                                 F               0         Blade 1 Z force, node 69, N
        208    6.408E+03                                 F               0         Blade 1 X force, node 70, N
        209    8.331E+01                                 F               0         Blade 1 Y force, node 70, N
        210   -1.408E+03                                 F               0         Blade 1 Z force, node 70, N