
Linearized model: Predictions were generated on 12-Feb-2024 at 18:31:58 using OpenFAST, compiled as a 64-bit application using single precision at commit v3.5.1
 linked with  NWTC Subroutine Library; ElastoDyn; InflowWind; AeroDyn; ServoDyn; HydroDyn; MAP++ (<1.20.10>, <Oct-20-2023>)

Description from the FAST input file: CCT-9 Campign 4 model. Input files to be run with OpenFAST 3.5.0. GitHub branch from Lu Wang (https://github.com/luwang00/openfast/tree/dev) compiled on March 7, 2023.

Simulation information:
   Simulation time:                  1006.2250 s
   Rotor Speed:                         1.0470 rad/s
   Azimuth:                             6.1817 rad
   Wind Speed:                         12.0000 m/s
   Number of continuous states:        14
   Number of discrete states:           0
   Number of constraint states:         0
   Number of inputs:                 1890
   Number of outputs:                  25
   Jacobians included in this file?    No

Order of continuous states:
   Row/Column Operating Point                     Rotating Frame? Derivative Order Description
   ---------- ---------------                     --------------- ---------------- -----------
          1    1.242E+01                                 F               2         Platform horizontal surge translation DOF (internal DOF index = DOF_Sg), m
          2   -2.296E-01                                 F               2         Platform horizontal sway translation DOF (internal DOF index = DOF_Sw), m
          3   -2.389E-01                                 F               2         Platform vertical heave translation DOF (internal DOF index = DOF_Hv), m
          4    4.610E-02                                 F               2         Platform roll tilt rotation DOF (internal DOF index = DOF_R), rad
          5    1.523E-01                                 F               2         Platform pitch tilt rotation DOF (internal DOF index = DOF_P), rad
          6    1.187E-02                                 F               2         Platform yaw rotation DOF (internal DOF index = DOF_Y), rad
          7    4.611E+00                                 F               2         Variable speed generator DOF (internal DOF index = DOF_GeAz), rad
          8    2.281E-04                                 F               2         First time derivative of Platform horizontal surge translation DOF (internal DOF index = DOF_Sg), m/s
          9    8.348E-04                                 F               2         First time derivative of Platform horizontal sway translation DOF (internal DOF index = DOF_Sw), m/s
         10    4.491E-03                                 F               2         First time derivative of Platform vertical heave translation DOF (internal DOF index = DOF_Hv), m/s
         11   -4.711E-04                                 F               2         First time derivative of Platform roll tilt rotation DOF (internal DOF index = DOF_R), rad/s
         12   -3.287E-05                                 F               2         First time derivative of Platform pitch tilt rotation DOF (internal DOF index = DOF_P), rad/s
         13    2.157E-04                                 F               2         First time derivative of Platform yaw rotation DOF (internal DOF index = DOF_Y), rad/s
         14    1.047E+00                                 F               2         First time derivative of Variable speed generator DOF (internal DOF index = DOF_GeAz), rad/s

Order of continuous state derivatives:
   Row/Column Operating Point                     Rotating Frame? Derivative Order Description
   ---------- ---------------                     --------------- ---------------- -----------
          1    2.281E-04                                 F               2         First time derivative of Platform horizontal surge translation DOF (internal DOF index = DOF_Sg), m/s
          2    8.348E-04                                 F               2         First time derivative of Platform horizontal sway translation DOF (internal DOF index = DOF_Sw), m/s
          3    4.491E-03                                 F               2         First time derivative of Platform vertical heave translation DOF (internal DOF index = DOF_Hv), m/s
          4   -4.711E-04                                 F               2         First time derivative of Platform roll tilt rotation DOF (internal DOF index = DOF_R), rad/s
          5   -3.287E-05                                 F               2         First time derivative of Platform pitch tilt rotation DOF (internal DOF index = DOF_P), rad/s
          6    2.157E-04                                 F               2         First time derivative of Platform yaw rotation DOF (internal DOF index = DOF_Y), rad/s
          7    1.047E+00                                 F               2         First time derivative of Variable speed generator DOF (internal DOF index = DOF_GeAz), rad/s
          8    1.686E-04                                 F               2         First time derivative of First time derivative of Platform horizontal surge translation DOF (internal DOF index = DOF_Sg), m/s/s
          9    6.867E-04                                 F               2         First time derivative of First time derivative of Platform horizontal sway translation DOF (internal DOF index = DOF_Sw), m/s/s
         10    6.148E-04                                 F               2         First time derivative of First time derivative of Platform vertical heave translation DOF (internal DOF index = DOF_Hv), m/s/s
         11   -1.793E-04                                 F               2         First time derivative of First time derivative of Platform roll tilt rotation DOF (internal DOF index = DOF_R), rad/s/s
         12    1.022E-05                                 F               2         First time derivative of First time derivative of Platform pitch tilt rotation DOF (internal DOF index = DOF_P), rad/s/s
         13    3.046E-05                                 F               2         First time derivative of First time derivative of Platform yaw rotation DOF (internal DOF index = DOF_Y), rad/s/s
         14    4.023E-05                                 F               2         First time derivative of First time derivative of Variable speed generator DOF (internal DOF index = DOF_GeAz), rad/s/s

Order of inputs:
     Column   Operating Point                     Rotating Frame? Derivative Order Description
   ---------- ---------------                     --------------- ---------------- -----------
          1    9.455E+01                                 F               0         Blade 1 X force, node 1, N
          2    1.001E+02                                 F               0         Blade 1 Y force, node 1, N
          3   -3.063E+01                                 F               0         Blade 1 Z force, node 1, N
          4    4.122E+02                                 F               0         Blade 1 X force, node 2, N
          5    1.995E+02                                 F               0         Blade 1 Y force, node 2, N
          6   -1.192E+02                                 F               0         Blade 1 Z force, node 2, N
          7    5.423E+02                                 F               0         Blade 1 X force, node 3, N
          8    1.226E+02                                 F               0         Blade 1 Y force, node 3, N
          9   -1.483E+02                                 F               0         Blade 1 Z force, node 3, N
         10    7.163E+02                                 F               0         Blade 1 X force, node 4, N
         11    6.956E+01                                 F               0         Blade 1 Y force, node 4, N
         12   -1.903E+02                                 F               0         Blade 1 Z force, node 4, N
         13    8.902E+02                                 F               0         Blade 1 X force, node 5, N
         14    1.649E+01                                 F               0         Blade 1 Y force, node 5, N
         15   -2.323E+02                                 F               0         Blade 1 Z force, node 5, N
         16    1.064E+03                                 F               0         Blade 1 X force, node 6, N
         17   -3.659E+01                                 F               0         Blade 1 Y force, node 6, N
         18   -2.742E+02                                 F               0         Blade 1 Z force, node 6, N
         19    1.238E+03                                 F               0         Blade 1 X force, node 7, N
         20   -8.967E+01                                 F               0         Blade 1 Y force, node 7, N
         21   -3.162E+02                                 F               0         Blade 1 Z force, node 7, N
         22    1.412E+03                                 F               0         Blade 1 X force, node 8, N
         23   -1.427E+02                                 F               0         Blade 1 Y force, node 8, N
         24   -3.582E+02                                 F               0         Blade 1 Z force, node 8, N
         25    1.586E+03                                 F               0         Blade 1 X force, node 9, N
         26   -1.958E+02                                 F               0         Blade 1 Y force, node 9, N
         27   -4.001E+02                                 F               0         Blade 1 Z force, node 9, N
         28    1.760E+03                                 F               0         Blade 1 X force, node 10, N
         29   -2.489E+02                                 F               0         Blade 1 Y force, node 10, N
         30   -4.421E+02                                 F               0         Blade 1 Z force, node 10, N
         31    1.934E+03                                 F               0         Blade 1 X force, node 11, N
         32   -3.020E+02                                 F               0         Blade 1 Y force, node 11, N
         33   -4.841E+02                                 F               0         Blade 1 Z force, node 11, N
         34    2.108E+03                                 F               0         Blade 1 X force, node 12, N
         35   -3.551E+02                                 F               0         Blade 1 Y force, node 12, N
         36   -5.260E+02                                 F               0         Blade 1 Z force, node 12, N
         37    2.282E+03                                 F               0         Blade 1 X force, node 13, N
         38   -4.081E+02                                 F               0         Blade 1 Y force, node 13, N
         39   -5.680E+02                                 F               0         Blade 1 Z force, node 13, N
         40    2.455E+03                                 F               0         Blade 1 X force, node 14, N
         41   -4.612E+02                                 F               0         Blade 1 Y force, node 14, N
         42   -6.100E+02                                 F               0         Blade 1 Z force, node 14, N
         43    2.629E+03                                 F               0         Blade 1 X force, node 15, N
         44   -5.143E+02                                 F               0         Blade 1 Y force, node 15, N
         45   -6.519E+02                                 F               0         Blade 1 Z force, node 15, N
         46    2.803E+03                                 F               0         Blade 1 X force, node 16, N
         47   -5.674E+02                                 F               0         Blade 1 Y force, node 16, N
         48   -6.939E+02                                 F               0         Blade 1 Z force, node 16, N
         49    3.454E+03                                 F               0         Blade 1 X force, node 17, N
         50   -7.161E+02                                 F               0         Blade 1 Y force, node 17, N
         51   -8.539E+02                                 F               0         Blade 1 Z force, node 17, N
         52    2.648E+03                                 F               0         Blade 1 X force, node 18, N
         53   -5.268E+02                                 F               0         Blade 1 Y force, node 18, N
         54   -6.561E+02                                 F               0         Blade 1 Z force, node 18, N
         55    3.265E+03                                 F               0         Blade 1 X force, node 19, N
         56   -6.109E+02                                 F               0         Blade 1 Y force, node 19, N
         57   -8.113E+02                                 F               0         Blade 1 Z force, node 19, N
         58    2.796E+03                                 F               0         Blade 1 X force, node 20, N
         59   -4.929E+02                                 F               0         Blade 1 Y force, node 20, N
         60   -6.966E+02                                 F               0         Blade 1 Z force, node 20, N
         61    4.150E+03                                 F               0         Blade 1 X force, node 21, N
         62   -6.819E+02                                 F               0         Blade 1 Y force, node 21, N
         63   -1.037E+03                                 F               0         Blade 1 Z force, node 21, N
         64    3.680E+03                                 F               0         Blade 1 X force, node 22, N
         65   -5.629E+02                                 F               0         Blade 1 Y force, node 22, N
         66   -9.219E+02                                 F               0         Blade 1 Z force, node 22, N
         67    3.795E+03                                 F               0         Blade 1 X force, node 23, N
         68   -5.431E+02                                 F               0         Blade 1 Y force, node 23, N
         69   -9.530E+02                                 F               0         Blade 1 Z force, node 23, N
         70    3.978E+03                                 F               0         Blade 1 X force, node 24, N
         71   -5.325E+02                                 F               0         Blade 1 Y force, node 24, N
         72   -1.001E+03                                 F               0         Blade 1 Z force, node 24, N
         73    4.091E+03                                 F               0         Blade 1 X force, node 25, N
         74   -5.121E+02                                 F               0         Blade 1 Y force, node 25, N
         75   -1.032E+03                                 F               0         Blade 1 Z force, node 25, N
         76    4.227E+03                                 F               0         Blade 1 X force, node 26, N
         77   -4.946E+02                                 F               0         Blade 1 Y force, node 26, N
         78   -1.068E+03                                 F               0         Blade 1 Z force, node 26, N
         79    5.083E+03                                 F               0         Blade 1 X force, node 27, N
         80   -5.535E+02                                 F               0         Blade 1 Y force, node 27, N
         81   -1.287E+03                                 F               0         Blade 1 Z force, node 27, N
         82    3.780E+03                                 F               0         Blade 1 X force, node 28, N
         83   -3.831E+02                                 F               0         Blade 1 Y force, node 28, N
         84   -9.589E+02                                 F               0         Blade 1 Z force, node 28, N
         85    4.636E+03                                 F               0         Blade 1 X force, node 29, N
         86   -4.417E+02                                 F               0         Blade 1 Y force, node 29, N
         87   -1.178E+03                                 F               0         Blade 1 Z force, node 29, N
         88    3.954E+03                                 F               0         Blade 1 X force, node 30, N
         89   -3.539E+02                                 F               0         Blade 1 Y force, node 30, N
         90   -1.006E+03                                 F               0         Blade 1 Z force, node 30, N
         91    5.727E+03                                 F               0         Blade 1 X force, node 31, N
         92   -4.758E+02                                 F               0         Blade 1 Y force, node 31, N
         93   -1.459E+03                                 F               0         Blade 1 Z force, node 31, N
         94    5.044E+03                                 F               0         Blade 1 X force, node 32, N
         95   -3.878E+02                                 F               0         Blade 1 Y force, node 32, N
         96   -1.287E+03                                 F               0         Blade 1 Z force, node 32, N
         97    5.179E+03                                 F               0         Blade 1 X force, node 33, N
         98   -3.696E+02                                 F               0         Blade 1 Y force, node 33, N
         99   -1.323E+03                                 F               0         Blade 1 Z force, node 33, N
        100    5.315E+03                                 F               0         Blade 1 X force, node 34, N
        101   -3.514E+02                                 F               0         Blade 1 Y force, node 34, N
        102   -1.360E+03                                 F               0         Blade 1 Z force, node 34, N
        103    5.451E+03                                 F               0         Blade 1 X force, node 35, N
        104   -3.332E+02                                 F               0         Blade 1 Y force, node 35, N
        105   -1.396E+03                                 F               0         Blade 1 Z force, node 35, N
        106    5.586E+03                                 F               0         Blade 1 X force, node 36, N
        107   -3.148E+02                                 F               0         Blade 1 Y force, node 36, N
        108   -1.432E+03                                 F               0         Blade 1 Z force, node 36, N
        109    6.694E+03                                 F               0         Blade 1 X force, node 37, N
        110   -3.450E+02                                 F               0         Blade 1 Y force, node 37, N
        111   -1.718E+03                                 F               0         Blade 1 Z force, node 37, N
        112    4.884E+03                                 F               0         Blade 1 X force, node 38, N
        113   -2.296E+02                                 F               0         Blade 1 Y force, node 38, N
        114   -1.255E+03                                 F               0         Blade 1 Z force, node 38, N
        115    5.994E+03                                 F               0         Blade 1 X force, node 39, N
        116   -2.598E+02                                 F               0         Blade 1 Y force, node 39, N
        117   -1.542E+03                                 F               0         Blade 1 Z force, node 39, N
        118    5.118E+03                                 F               0         Blade 1 X force, node 40, N
        119   -2.037E+02                                 F               0         Blade 1 Y force, node 40, N
        120   -1.317E+03                                 F               0         Blade 1 Z force, node 40, N
        121    7.280E+03                                 F               0         Blade 1 X force, node 41, N
        122   -2.607E+02                                 F               0         Blade 1 Y force, node 41, N
        123   -1.876E+03                                 F               0         Blade 1 Z force, node 41, N
        124    6.401E+03                                 F               0         Blade 1 X force, node 42, N
        125   -2.044E+02                                 F               0         Blade 1 Y force, node 42, N
        126   -1.651E+03                                 F               0         Blade 1 Z force, node 42, N
        127    6.536E+03                                 F               0         Blade 1 X force, node 43, N
        128   -1.858E+02                                 F               0         Blade 1 Y force, node 43, N
        129   -1.687E+03                                 F               0         Blade 1 Z force, node 43, N
        130    6.706E+03                                 F               0         Blade 1 X force, node 44, N
        131   -1.680E+02                                 F               0         Blade 1 Y force, node 44, N
        132   -1.732E+03                                 F               0         Blade 1 Z force, node 44, N
        133    6.770E+03                                 F               0         Blade 1 X force, node 45, N
        134   -1.476E+02                                 F               0         Blade 1 Y force, node 45, N
        135   -1.750E+03                                 F               0         Blade 1 Z force, node 45, N
        136    6.940E+03                                 F               0         Blade 1 X force, node 46, N
        137   -1.298E+02                                 F               0         Blade 1 Y force, node 46, N
        138   -1.795E+03                                 F               0         Blade 1 Z force, node 46, N
        139    8.317E+03                                 F               0         Blade 1 X force, node 47, N
        140   -1.290E+02                                 F               0         Blade 1 Y force, node 47, N
        141   -2.153E+03                                 F               0         Blade 1 Z force, node 47, N
        142    5.968E+03                                 F               0         Blade 1 X force, node 48, N
        143   -7.456E+01                                 F               0         Blade 1 Y force, node 48, N
        144   -1.546E+03                                 F               0         Blade 1 Z force, node 48, N
        145    7.344E+03                                 F               0         Blade 1 X force, node 49, N
        146   -7.368E+01                                 F               0         Blade 1 Y force, node 49, N
        147   -1.903E+03                                 F               0         Blade 1 Z force, node 49, N
        148    6.288E+03                                 F               0         Blade 1 X force, node 50, N
        149   -4.792E+01                                 F               0         Blade 1 Y force, node 50, N
        150   -1.631E+03                                 F               0         Blade 1 Z force, node 50, N
        151    8.802E+03                                 F               0         Blade 1 X force, node 51, N
        152   -4.318E+01                                 F               0         Blade 1 Y force, node 51, N
        153   -2.284E+03                                 F               0         Blade 1 Z force, node 51, N
        154    7.749E+03                                 F               0         Blade 1 X force, node 52, N
        155   -1.753E+01                                 F               0         Blade 1 Y force, node 52, N
        156   -2.012E+03                                 F               0         Blade 1 Z force, node 52, N
        157    7.885E+03                                 F               0         Blade 1 X force, node 53, N
        158    1.130E+00                                 F               0         Blade 1 Y force, node 53, N
        159   -2.049E+03                                 F               0         Blade 1 Z force, node 53, N
        160    8.109E+03                                 F               0         Blade 1 X force, node 54, N
        161    2.009E+01                                 F               0         Blade 1 Y force, node 54, N
        162   -2.108E+03                                 F               0         Blade 1 Z force, node 54, N
        163    8.068E+03                                 F               0         Blade 1 X force, node 55, N
        164    3.825E+01                                 F               0         Blade 1 Y force, node 55, N
        165   -2.099E+03                                 F               0         Blade 1 Z force, node 55, N
        166    8.292E+03                                 F               0         Blade 1 X force, node 56, N
        167    5.728E+01                                 F               0         Blade 1 Y force, node 56, N
        168   -2.158E+03                                 F               0         Blade 1 Z force, node 56, N
        169    9.953E+03                                 F               0         Blade 1 X force, node 57, N
        170    9.123E+01                                 F               0         Blade 1 Y force, node 57, N
        171   -2.591E+03                                 F               0         Blade 1 Z force, node 57, N
        172    7.037E+03                                 F               0         Blade 1 X force, node 58, N
        173    7.962E+01                                 F               0         Blade 1 Y force, node 58, N
        174   -1.833E+03                                 F               0         Blade 1 Z force, node 58, N
        175    8.699E+03                                 F               0         Blade 1 X force, node 59, N
        176    1.136E+02                                 F               0         Blade 1 Y force, node 59, N
        177   -2.267E+03                                 F               0         Blade 1 Z force, node 59, N
        178    7.482E+03                                 F               0         Blade 1 X force, node 60, N
        179    1.107E+02                                 F               0         Blade 1 Y force, node 60, N
        180   -1.950E+03                                 F               0         Blade 1 Z force, node 60, N
        181    1.032E+04                                 F               0         Blade 1 X force, node 61, N
        182    1.730E+02                                 F               0         Blade 1 Y force, node 61, N
        183   -2.692E+03                                 F               0         Blade 1 Z force, node 61, N
        184    9.102E+03                                 F               0         Blade 1 X force, node 62, N
        185    1.702E+02                                 F               0         Blade 1 Y force, node 62, N
        186   -2.375E+03                                 F               0         Blade 1 Z force, node 62, N
        187    9.235E+03                                 F               0         Blade 1 X force, node 63, N
        188    1.891E+02                                 F               0         Blade 1 Y force, node 63, N
        189   -2.411E+03                                 F               0         Blade 1 Z force, node 63, N
        190    9.525E+03                                 F               0         Blade 1 X force, node 64, N
        191    2.116E+02                                 F               0         Blade 1 Y force, node 64, N
        192   -2.488E+03                                 F               0         Blade 1 Z force, node 64, N
        193    9.348E+03                                 F               0         Blade 1 X force, node 65, N
        194    2.233E+02                                 F               0         Blade 1 Y force, node 65, N
        195   -2.442E+03                                 F               0         Blade 1 Z force, node 65, N
        196    9.642E+03                                 F               0         Blade 1 X force, node 66, N
        197    2.457E+02                                 F               0         Blade 1 Y force, node 66, N
        198   -2.520E+03                                 F               0         Blade 1 Z force, node 66, N
        199    1.160E+04                                 F               0         Blade 1 X force, node 67, N
        200    3.150E+02                                 F               0         Blade 1 Y force, node 67, N
        201   -3.033E+03                                 F               0         Blade 1 Z force, node 67, N
        202    8.093E+03                                 F               0         Blade 1 X force, node 68, N
        203    2.328E+02                                 F               0         Blade 1 Y force, node 68, N
        204   -2.117E+03                                 F               0         Blade 1 Z force, node 68, N
        205    1.005E+04                                 F               0         Blade 1 X force, node 69, N
        206    3.024E+02                                 F               0         Blade 1 Y force, node 69, N
        207   -2.629E+03                                 F               0         Blade 1 Z force, node 69, N
        208    8.685E+03                                 F               0         Blade 1 X force, node 70, N
        209    2.729E+02                                 F               0         Blade 1 Y force, node 70, N
        210   -2.273E+03                                 F               0         Blade 1 Z force, node 70, N