
Linearized model: Predictions were generated on 30-Jan-2024 at 18:20:32 using OpenFAST, compiled as a 64-bit application using single precision at commit v3.5.1
 linked with  NWTC Subroutine Library; ElastoDyn; InflowWind; AeroDyn; ServoDyn; HydroDyn; MAP++ (<1.20.10>, <Oct-20-2023>)

Description from the FAST input file: CCT-9 Campign 4 model. Input files to be run with OpenFAST 3.5.0. GitHub branch from Lu Wang (https://github.com/luwang00/openfast/tree/dev) compiled on March 7, 2023.

Simulation information:
   Simulation time:                   500.2500 s
   Rotor Speed:                         0.8797 rad/s
   Azimuth:                             5.3799 rad
   Wind Speed:                         10.0000 m/s
   Number of continuous states:         0
   Number of discrete states:           0
   Number of constraint states:         0
   Number of inputs:                  303
   Number of outputs:                   1
   Jacobians included in this file?    No

Order of inputs:
     Column   Operating Point                     Rotating Frame? Derivative Order Description
   ---------- ---------------                     --------------- ---------------- -----------
          1   -1.080E+01                                 F               0         X-component position of node 1 (hub), m
          2    0.000E+00                                 F               0         Y-component position of node 1 (hub), m
          3    1.497E+02                                 F               0         Z-component position of node 1 (hub), m
          4    1.606E+01                                 F               0         X-component position of node 2 (blade 1, node 1), m
          5   -2.511E+00                                 F               0         Y-component position of node 2 (blade 1, node 1), m
          6    1.532E+02                                 F               0         Z-component position of node 2 (blade 1, node 1), m
          7    1.623E+01                                 F               0         X-component position of node 3 (blade 1, node 2), m
          8   -1.497E+00                                 F               0         Y-component position of node 3 (blade 1, node 2), m
          9    1.541E+02                                 F               0         Z-component position of node 3 (blade 1, node 2), m
         10    1.861E+01                                 F               0         X-component position of node 4 (blade 1, node 3), m
         11    1.229E+01                                 F               0         Y-component position of node 4 (blade 1, node 3), m
         12    1.656E+02                                 F               0         Z-component position of node 4 (blade 1, node 3), m
         13    1.911E+01                                 F               0         X-component position of node 5 (blade 1, node 4), m
         14    1.523E+01                                 F               0         Y-component position of node 5 (blade 1, node 4), m
         15    1.681E+02                                 F               0         Z-component position of node 5 (blade 1, node 4), m
         16    1.962E+01                                 F               0         X-component position of node 6 (blade 1, node 5), m
         17    1.817E+01                                 F               0         Y-component position of node 6 (blade 1, node 5), m
         18    1.706E+02                                 F               0         Z-component position of node 6 (blade 1, node 5), m
         19    2.013E+01                                 F               0         X-component position of node 7 (blade 1, node 6), m
         20    2.110E+01                                 F               0         Y-component position of node 7 (blade 1, node 6), m
         21    1.730E+02                                 F               0         Z-component position of node 7 (blade 1, node 6), m
         22    2.063E+01                                 F               0         X-component position of node 8 (blade 1, node 7), m
         23    2.404E+01                                 F               0         Y-component position of node 8 (blade 1, node 7), m
         24    1.755E+02                                 F               0         Z-component position of node 8 (blade 1, node 7), m
         25    2.114E+01                                 F               0         X-component position of node 9 (blade 1, node 8), m
         26    2.698E+01                                 F               0         Y-component position of node 9 (blade 1, node 8), m
         27    1.779E+02                                 F               0         Z-component position of node 9 (blade 1, node 8), m
         28    2.165E+01                                 F               0         X-component position of node 10 (blade 1, node 9), m
         29    2.992E+01                                 F               0         Y-component position of node 10 (blade 1, node 9), m
         30    1.804E+02                                 F               0         Z-component position of node 10 (blade 1, node 9), m
         31    2.215E+01                                 F               0         X-component position of node 11 (blade 1, node 10), m
         32    3.286E+01                                 F               0         Y-component position of node 11 (blade 1, node 10), m
         33    1.829E+02                                 F               0         Z-component position of node 11 (blade 1, node 10), m
         34    2.266E+01                                 F               0         X-component position of node 12 (blade 1, node 11), m
         35    3.579E+01                                 F               0         Y-component position of node 12 (blade 1, node 11), m
         36    1.853E+02                                 F               0         Z-component position of node 12 (blade 1, node 11), m
         37    2.316E+01                                 F               0         X-component position of node 13 (blade 1, node 12), m
         38    3.873E+01                                 F               0         Y-component position of node 13 (blade 1, node 12), m
         39    1.878E+02                                 F               0         Z-component position of node 13 (blade 1, node 12), m
         40    2.367E+01                                 F               0         X-component position of node 14 (blade 1, node 13), m
         41    4.167E+01                                 F               0         Y-component position of node 14 (blade 1, node 13), m
         42    1.903E+02                                 F               0         Z-component position of node 14 (blade 1, node 13), m
         43    2.418E+01                                 F               0         X-component position of node 15 (blade 1, node 14), m
         44    4.461E+01                                 F               0         Y-component position of node 15 (blade 1, node 14), m
         45    1.927E+02                                 F               0         Z-component position of node 15 (blade 1, node 14), m
         46    2.468E+01                                 F               0         X-component position of node 16 (blade 1, node 15), m
         47    4.755E+01                                 F               0         Y-component position of node 16 (blade 1, node 15), m
         48    1.952E+02                                 F               0         Z-component position of node 16 (blade 1, node 15), m
         49    2.519E+01                                 F               0         X-component position of node 17 (blade 1, node 16), m
         50    5.048E+01                                 F               0         Y-component position of node 17 (blade 1, node 16), m
         51    1.977E+02                                 F               0         Z-component position of node 17 (blade 1, node 16), m
         52    2.570E+01                                 F               0         X-component position of node 18 (blade 1, node 17), m
         53    5.342E+01                                 F               0         Y-component position of node 18 (blade 1, node 17), m
         54    2.001E+02                                 F               0         Z-component position of node 18 (blade 1, node 17), m
         55    2.620E+01                                 F               0         X-component position of node 19 (blade 1, node 18), m
         56    5.636E+01                                 F               0         Y-component position of node 19 (blade 1, node 18), m
         57    2.026E+02                                 F               0         Z-component position of node 19 (blade 1, node 18), m
         58    2.671E+01                                 F               0         X-component position of node 20 (blade 1, node 19), m
         59    5.930E+01                                 F               0         Y-component position of node 20 (blade 1, node 19), m
         60    2.051E+02                                 F               0         Z-component position of node 20 (blade 1, node 19), m
         61    2.721E+01                                 F               0         X-component position of node 21 (blade 1, node 20), m
         62    6.223E+01                                 F               0         Y-component position of node 21 (blade 1, node 20), m
         63    2.075E+02                                 F               0         Z-component position of node 21 (blade 1, node 20), m
         64    2.772E+01                                 F               0         X-component position of node 22 (blade 1, node 21), m
         65    6.517E+01                                 F               0         Y-component position of node 22 (blade 1, node 21), m
         66    2.100E+02                                 F               0         Z-component position of node 22 (blade 1, node 21), m
         67    2.823E+01                                 F               0         X-component position of node 23 (blade 1, node 22), m
         68    6.811E+01                                 F               0         Y-component position of node 23 (blade 1, node 22), m
         69    2.124E+02                                 F               0         Z-component position of node 23 (blade 1, node 22), m
         70    2.873E+01                                 F               0         X-component position of node 24 (blade 1, node 23), m
         71    7.105E+01                                 F               0         Y-component position of node 24 (blade 1, node 23), m
         72    2.149E+02                                 F               0         Z-component position of node 24 (blade 1, node 23), m
         73    2.924E+01                                 F               0         X-component position of node 25 (blade 1, node 24), m
         74    7.399E+01                                 F               0         Y-component position of node 25 (blade 1, node 24), m
         75    2.174E+02                                 F               0         Z-component position of node 25 (blade 1, node 24), m
         76    2.975E+01                                 F               0         X-component position of node 26 (blade 1, node 25), m
         77    7.692E+01                                 F               0         Y-component position of node 26 (blade 1, node 25), m
         78    2.198E+02                                 F               0         Z-component position of node 26 (blade 1, node 25), m
         79    3.025E+01                                 F               0         X-component position of node 27 (blade 1, node 26), m
         80    7.986E+01                                 F               0         Y-component position of node 27 (blade 1, node 26), m
         81    2.223E+02                                 F               0         Z-component position of node 27 (blade 1, node 26), m
         82    3.076E+01                                 F               0         X-component position of node 28 (blade 1, node 27), m
         83    8.280E+01                                 F               0         Y-component position of node 28 (blade 1, node 27), m
         84    2.248E+02                                 F               0         Z-component position of node 28 (blade 1, node 27), m
         85    3.119E+01                                 F               0         X-component position of node 29 (blade 1, node 28), m
         86    8.529E+01                                 F               0         Y-component position of node 29 (blade 1, node 28), m
         87    2.269E+02                                 F               0         Z-component position of node 29 (blade 1, node 28), m
         88    1.580E+01                                 F               0         X-component position of node 30 (blade 2, node 1), m
         89   -1.194E+01                                 F               0         Y-component position of node 30 (blade 2, node 1), m
         90    1.515E+02                                 F               0         Z-component position of node 30 (blade 2, node 1), m
         91    1.592E+01                                 F               0         X-component position of node 31 (blade 2, node 2), m
         92   -1.320E+01                                 F               0         Y-component position of node 31 (blade 2, node 2), m
         93    1.519E+02                                 F               0         Z-component position of node 31 (blade 2, node 2), m
         94    1.747E+01                                 F               0         X-component position of node 32 (blade 2, node 3), m
         95   -3.032E+01                                 F               0         Y-component position of node 32 (blade 2, node 3), m
         96    1.577E+02                                 F               0         Z-component position of node 32 (blade 2, node 3), m
         97    1.780E+01                                 F               0         X-component position of node 33 (blade 2, node 4), m
         98   -3.396E+01                                 F               0         Y-component position of node 33 (blade 2, node 4), m
         99    1.590E+02                                 F               0         Z-component position of node 33 (blade 2, node 4), m
        100    1.813E+01                                 F               0         X-component position of node 34 (blade 2, node 5), m
        101   -3.761E+01                                 F               0         Y-component position of node 34 (blade 2, node 5), m
        102    1.602E+02                                 F               0         Z-component position of node 34 (blade 2, node 5), m
        103    1.846E+01                                 F               0         X-component position of node 35 (blade 2, node 6), m
        104   -4.126E+01                                 F               0         Y-component position of node 35 (blade 2, node 6), m
        105    1.615E+02                                 F               0         Z-component position of node 35 (blade 2, node 6), m
        106    1.879E+01                                 F               0         X-component position of node 36 (blade 2, node 7), m
        107   -4.491E+01                                 F               0         Y-component position of node 36 (blade 2, node 7), m
        108    1.627E+02                                 F               0         Z-component position of node 36 (blade 2, node 7), m
        109    1.912E+01                                 F               0         X-component position of node 37 (blade 2, node 8), m
        110   -4.855E+01                                 F               0         Y-component position of node 37 (blade 2, node 8), m
        111    1.640E+02                                 F               0         Z-component position of node 37 (blade 2, node 8), m
        112    1.945E+01                                 F               0         X-component position of node 38 (blade 2, node 9), m
        113   -5.220E+01                                 F               0         Y-component position of node 38 (blade 2, node 9), m
        114    1.652E+02                                 F               0         Z-component position of node 38 (blade 2, node 9), m
        115    1.979E+01                                 F               0         X-component position of node 39 (blade 2, node 10), m
        116   -5.585E+01                                 F               0         Y-component position of node 39 (blade 2, node 10), m
        117    1.665E+02                                 F               0         Z-component position of node 39 (blade 2, node 10), m
        118    2.012E+01                                 F               0         X-component position of node 40 (blade 2, node 11), m
        119   -5.949E+01                                 F               0         Y-component position of node 40 (blade 2, node 11), m
        120    1.677E+02                                 F               0         Z-component position of node 40 (blade 2, node 11), m
        121    2.045E+01                                 F               0         X-component position of node 41 (blade 2, node 12), m
        122   -6.314E+01                                 F               0         Y-component position of node 41 (blade 2, node 12), m
        123    1.689E+02                                 F               0         Z-component position of node 41 (blade 2, node 12), m
        124    2.078E+01                                 F               0         X-component position of node 42 (blade 2, node 13), m
        125   -6.679E+01                                 F               0         Y-component position of node 42 (blade 2, node 13), m
        126    1.702E+02                                 F               0         Z-component position of node 42 (blade 2, node 13), m
        127    2.111E+01                                 F               0         X-component position of node 43 (blade 2, node 14), m
        128   -7.043E+01                                 F               0         Y-component position of node 43 (blade 2, node 14), m
        129    1.714E+02                                 F               0         Z-component position of node 43 (blade 2, node 14), m
        130    2.144E+01                                 F               0         X-component position of node 44 (blade 2, node 15), m
        131   -7.408E+01                                 F               0         Y-component position of node 44 (blade 2, node 15), m
        132    1.727E+02                                 F               0         Z-component position of node 44 (blade 2, node 15), m
        133    2.177E+01                                 F               0         X-component position of node 45 (blade 2, node 16), m
        134   -7.773E+01                                 F               0         Y-component position of node 45 (blade 2, node 16), m
        135    1.739E+02                                 F               0         Z-component position of node 45 (blade 2, node 16), m
        136    2.210E+01                                 F               0         X-component position of node 46 (blade 2, node 17), m
        137   -8.138E+01                                 F               0         Y-component position of node 46 (blade 2, node 17), m
        138    1.752E+02                                 F               0         Z-component position of node 46 (blade 2, node 17), m
        139    2.243E+01                                 F               0         X-component position of node 47 (blade 2, node 18), m
        140   -8.502E+01                                 F               0         Y-component position of node 47 (blade 2, node 18), m
        141    1.764E+02                                 F               0         Z-component position of node 47 (blade 2, node 18), m
        142    2.276E+01                                 F               0         X-component position of node 48 (blade 2, node 19), m
        143   -8.867E+01                                 F               0         Y-component position of node 48 (blade 2, node 19), m
        144    1.777E+02                                 F               0         Z-component position of node 48 (blade 2, node 19), m
        145    2.309E+01                                 F               0         X-component position of node 49 (blade 2, node 20), m
        146   -9.232E+01                                 F               0         Y-component position of node 49 (blade 2, node 20), m
        147    1.789E+02                                 F               0         Z-component position of node 49 (blade 2, node 20), m
        148    2.342E+01                                 F               0         X-component position of node 50 (blade 2, node 21), m
        149   -9.596E+01                                 F               0         Y-component position of node 50 (blade 2, node 21), m
        150    1.801E+02                                 F               0         Z-component position of node 50 (blade 2, node 21), m
        151    2.375E+01                                 F               0         X-component position of node 51 (blade 2, node 22), m
        152   -9.961E+01                                 F               0         Y-component position of node 51 (blade 2, node 22), m
        153    1.814E+02                                 F               0         Z-component position of node 51 (blade 2, node 22), m
        154    2.408E+01                                 F               0         X-component position of node 52 (blade 2, node 23), m
        155   -1.033E+02                                 F               0         Y-component position of node 52 (blade 2, node 23), m
        156    1.826E+02                                 F               0         Z-component position of node 52 (blade 2, node 23), m
        157    2.441E+01                                 F               0         X-component position of node 53 (blade 2, node 24), m
        158   -1.069E+02                                 F               0         Y-component position of node 53 (blade 2, node 24), m
        159    1.839E+02                                 F               0         Z-component position of node 53 (blade 2, node 24), m
        160    2.474E+01                                 F               0         X-component position of node 54 (blade 2, node 25), m
        161   -1.106E+02                                 F               0         Y-component position of node 54 (blade 2, node 25), m
        162    1.851E+02                                 F               0         Z-component position of node 54 (blade 2, node 25), m
        163    2.508E+01                                 F               0         X-component position of node 55 (blade 2, node 26), m
        164   -1.142E+02                                 F               0         Y-component position of node 55 (blade 2, node 26), m
        165    1.864E+02                                 F               0         Z-component position of node 55 (blade 2, node 26), m
        166    2.541E+01                                 F               0         X-component position of node 56 (blade 2, node 27), m
        167   -1.178E+02                                 F               0         Y-component position of node 56 (blade 2, node 27), m
        168    1.876E+02                                 F               0         Z-component position of node 56 (blade 2, node 27), m
        169    2.569E+01                                 F               0         X-component position of node 57 (blade 2, node 28), m
        170   -1.209E+02                                 F               0         Y-component position of node 57 (blade 2, node 28), m
        171    1.887E+02                                 F               0         Z-component position of node 57 (blade 2, node 28), m
        172    1.413E+01                                 F               0         X-component position of node 58 (blade 3, node 1), m
        173   -5.703E+00                                 F               0         Y-component position of node 58 (blade 3, node 1), m
        174    1.444E+02                                 F               0         Z-component position of node 58 (blade 3, node 1), m
        175    1.384E+01                                 F               0         X-component position of node 59 (blade 3, node 2), m
        176   -5.458E+00                                 F               0         Y-component position of node 59 (blade 3, node 2), m
        177    1.431E+02                                 F               0         Z-component position of node 59 (blade 3, node 2), m
        178    9.916E+00                                 F               0         X-component position of node 60 (blade 3, node 3), m
        179   -2.130E+00                                 F               0         Y-component position of node 60 (blade 3, node 3), m
        180    1.257E+02                                 F               0         Z-component position of node 60 (blade 3, node 3), m
        181    9.079E+00                                 F               0         X-component position of node 61 (blade 3, node 4), m
        182   -1.421E+00                                 F               0         Y-component position of node 61 (blade 3, node 4), m
        183    1.220E+02                                 F               0         Z-component position of node 61 (blade 3, node 4), m
        184    8.242E+00                                 F               0         X-component position of node 62 (blade 3, node 5), m
        185   -7.120E-01                                 F               0         Y-component position of node 62 (blade 3, node 5), m
        186    1.183E+02                                 F               0         Z-component position of node 62 (blade 3, node 5), m
        187    7.405E+00                                 F               0         X-component position of node 63 (blade 3, node 6), m
        188   -2.913E-03                                 F               0         Y-component position of node 63 (blade 3, node 6), m
        189    1.146E+02                                 F               0         Z-component position of node 63 (blade 3, node 6), m
        190    6.568E+00                                 F               0         X-component position of node 64 (blade 3, node 7), m
        191    7.062E-01                                 F               0         Y-component position of node 64 (blade 3, node 7), m
        192    1.108E+02                                 F               0         Z-component position of node 64 (blade 3, node 7), m
        193    5.731E+00                                 F               0         X-component position of node 65 (blade 3, node 8), m
        194    1.415E+00                                 F               0         Y-component position of node 65 (blade 3, node 8), m
        195    1.071E+02                                 F               0         Z-component position of node 65 (blade 3, node 8), m
        196    4.894E+00                                 F               0         X-component position of node 66 (blade 3, node 9), m
        197    2.124E+00                                 F               0         Y-component position of node 66 (blade 3, node 9), m
        198    1.034E+02                                 F               0         Z-component position of node 66 (blade 3, node 9), m
        199    4.058E+00                                 F               0         X-component position of node 67 (blade 3, node 10), m
        200    2.834E+00                                 F               0         Y-component position of node 67 (blade 3, node 10), m
        201    9.972E+01                                 F               0         Z-component position of node 67 (blade 3, node 10), m
        202    3.221E+00                                 F               0         X-component position of node 68 (blade 3, node 11), m
        203    3.543E+00                                 F               0         Y-component position of node 68 (blade 3, node 11), m
        204    9.601E+01                                 F               0         Z-component position of node 68 (blade 3, node 11), m
        205    2.384E+00                                 F               0         X-component position of node 69 (blade 3, node 12), m
        206    4.252E+00                                 F               0         Y-component position of node 69 (blade 3, node 12), m
        207    9.230E+01                                 F               0         Z-component position of node 69 (blade 3, node 12), m
        208    1.547E+00                                 F               0         X-component position of node 70 (blade 3, node 13), m
        209    4.961E+00                                 F               0         Y-component position of node 70 (blade 3, node 13), m
        210    8.860E+01                                 F               0         Z-component position of node 70 (blade 3, node 13), m
        211    7.100E-01                                 F               0         X-component position of node 71 (blade 3, node 14), m