
Linearized model: Predictions were generated on 30-Jan-2024 at 18:20:32 using OpenFAST, compiled as a 64-bit application using single precision at commit v3.5.1
 linked with  NWTC Subroutine Library; ElastoDyn; InflowWind; AeroDyn; ServoDyn; HydroDyn; MAP++ (<1.20.10>, <Oct-20-2023>)

Description from the FAST input file: CCT-9 Campign 4 model. Input files to be run with OpenFAST 3.5.0. GitHub branch from Lu Wang (https://github.com/luwang00/openfast/tree/dev) compiled on March 7, 2023.

Simulation information:
   Simulation time:                   506.6750 s
   Rotor Speed:                         0.8794 rad/s
   Azimuth:                             4.7473 rad
   Wind Speed:                         10.0000 m/s
   Number of continuous states:        14
   Number of discrete states:           0
   Number of constraint states:         0
   Number of inputs:                 1890
   Number of outputs:                  19
   Jacobians included in this file?    No

Order of continuous states:
   Row/Column Operating Point                     Rotating Frame? Derivative Order Description
   ---------- ---------------                     --------------- ---------------- -----------
          1    8.862E+00                                 F               2         Platform horizontal surge translation DOF (internal DOF index = DOF_Sg), m
          2   -3.546E-01                                 F               2         Platform horizontal sway translation DOF (internal DOF index = DOF_Sw), m
          3   -1.560E-01                                 F               2         Platform vertical heave translation DOF (internal DOF index = DOF_Hv), m
          4    4.287E-02                                 F               2         Platform roll tilt rotation DOF (internal DOF index = DOF_R), rad
          5    1.156E-01                                 F               2         Platform pitch tilt rotation DOF (internal DOF index = DOF_P), rad
          6    7.334E-03                                 F               2         Platform yaw rotation DOF (internal DOF index = DOF_Y), rad
          7    3.177E+00                                 F               2         Variable speed generator DOF (internal DOF index = DOF_GeAz), rad
          8   -4.612E-03                                 F               2         First time derivative of Platform horizontal surge translation DOF (internal DOF index = DOF_Sg), m/s
          9   -2.462E-04                                 F               2         First time derivative of Platform horizontal sway translation DOF (internal DOF index = DOF_Sw), m/s
         10    4.324E-03                                 F               2         First time derivative of Platform vertical heave translation DOF (internal DOF index = DOF_Hv), m/s
         11    3.290E-04                                 F               2         First time derivative of Platform roll tilt rotation DOF (internal DOF index = DOF_R), rad/s
         12    1.582E-05                                 F               2         First time derivative of Platform pitch tilt rotation DOF (internal DOF index = DOF_P), rad/s
         13   -7.551E-05                                 F               2         First time derivative of Platform yaw rotation DOF (internal DOF index = DOF_Y), rad/s
         14    8.794E-01                                 F               2         First time derivative of Variable speed generator DOF (internal DOF index = DOF_GeAz), rad/s

Order of continuous state derivatives:
   Row/Column Operating Point                     Rotating Frame? Derivative Order Description
   ---------- ---------------                     --------------- ---------------- -----------
          1   -4.612E-03                                 F               2         First time derivative of Platform horizontal surge translation DOF (internal DOF index = DOF_Sg), m/s
          2   -2.462E-04                                 F               2         First time derivative of Platform horizontal sway translation DOF (internal DOF index = DOF_Sw), m/s
          3    4.324E-03                                 F               2         First time derivative of Platform vertical heave translation DOF (internal DOF index = DOF_Hv), m/s
          4    3.290E-04                                 F               2         First time derivative of Platform roll tilt rotation DOF (internal DOF index = DOF_R), rad/s
          5    1.582E-05                                 F               2         First time derivative of Platform pitch tilt rotation DOF (internal DOF index = DOF_P), rad/s
          6   -7.551E-05                                 F               2         First time derivative of Platform yaw rotation DOF (internal DOF index = DOF_Y), rad/s
          7    8.794E-01                                 F               2         First time derivative of Variable speed generator DOF (internal DOF index = DOF_GeAz), rad/s
          8   -2.797E-04                                 F               2         First time derivative of First time derivative of Platform horizontal surge translation DOF (internal DOF index = DOF_Sg), m/s/s
          9   -1.415E-04                                 F               2         First time derivative of First time derivative of Platform horizontal sway translation DOF (internal DOF index = DOF_Sw), m/s/s
         10   -4.417E-04                                 F               2         First time derivative of First time derivative of Platform vertical heave translation DOF (internal DOF index = DOF_Hv), m/s/s
         11    4.133E-05                                 F               2         First time derivative of First time derivative of Platform roll tilt rotation DOF (internal DOF index = DOF_R), rad/s/s
         12   -8.945E-06                                 F               2         First time derivative of First time derivative of Platform pitch tilt rotation DOF (internal DOF index = DOF_P), rad/s/s
         13   -6.915E-06                                 F               2         First time derivative of First time derivative of Platform yaw rotation DOF (internal DOF index = DOF_Y), rad/s/s
         14   -1.115E-04                                 F               2         First time derivative of First time derivative of Variable speed generator DOF (internal DOF index = DOF_GeAz), rad/s/s

Order of inputs:
     Column   Operating Point                     Rotating Frame? Derivative Order Description
   ---------- ---------------                     --------------- ---------------- -----------
          1    5.776E+01                                 F               0         Blade 1 X force, node 1, N
          2    3.749E+00                                 F               0         Blade 1 Y force, node 1, N
          3   -5.066E+01                                 F               0         Blade 1 Z force, node 1, N
          4    2.751E+02                                 F               0         Blade 1 X force, node 2, N
          5    1.003E+01                                 F               0         Blade 1 Y force, node 2, N
          6   -1.399E+02                                 F               0         Blade 1 Z force, node 2, N
          7    3.976E+02                                 F               0         Blade 1 X force, node 3, N
          8    7.235E+00                                 F               0         Blade 1 Y force, node 3, N
          9   -1.081E+02                                 F               0         Blade 1 Z force, node 3, N
         10    5.496E+02                                 F               0         Blade 1 X force, node 4, N
         11    5.514E+00                                 F               0         Blade 1 Y force, node 4, N
         12   -9.130E+01                                 F               0         Blade 1 Z force, node 4, N
         13    7.016E+02                                 F               0         Blade 1 X force, node 5, N
         14    3.794E+00                                 F               0         Blade 1 Y force, node 5, N
         15   -7.452E+01                                 F               0         Blade 1 Z force, node 5, N
         16    8.536E+02                                 F               0         Blade 1 X force, node 6, N
         17    2.074E+00                                 F               0         Blade 1 Y force, node 6, N
         18   -5.773E+01                                 F               0         Blade 1 Z force, node 6, N
         19    1.006E+03                                 F               0         Blade 1 X force, node 7, N
         20    3.540E-01                                 F               0         Blade 1 Y force, node 7, N
         21   -4.095E+01                                 F               0         Blade 1 Z force, node 7, N
         22    1.158E+03                                 F               0         Blade 1 X force, node 8, N
         23   -1.366E+00                                 F               0         Blade 1 Y force, node 8, N
         24   -2.416E+01                                 F               0         Blade 1 Z force, node 8, N
         25    1.310E+03                                 F               0         Blade 1 X force, node 9, N
         26   -3.086E+00                                 F               0         Blade 1 Y force, node 9, N
         27   -7.378E+00                                 F               0         Blade 1 Z force, node 9, N
         28    1.462E+03                                 F               0         Blade 1 X force, node 10, N
         29   -4.806E+00                                 F               0         Blade 1 Y force, node 10, N
         30    9.408E+00                                 F               0         Blade 1 Z force, node 10, N
         31    1.614E+03                                 F               0         Blade 1 X force, node 11, N
         32   -6.526E+00                                 F               0         Blade 1 Y force, node 11, N
         33    2.619E+01                                 F               0         Blade 1 Z force, node 11, N
         34    1.766E+03                                 F               0         Blade 1 X force, node 12, N
         35   -8.247E+00                                 F               0         Blade 1 Y force, node 12, N
         36    4.298E+01                                 F               0         Blade 1 Z force, node 12, N
         37    1.918E+03                                 F               0         Blade 1 X force, node 13, N
         38   -9.967E+00                                 F               0         Blade 1 Y force, node 13, N
         39    5.976E+01                                 F               0         Blade 1 Z force, node 13, N
         40    2.070E+03                                 F               0         Blade 1 X force, node 14, N
         41   -1.169E+01                                 F               0         Blade 1 Y force, node 14, N
         42    7.655E+01                                 F               0         Blade 1 Z force, node 14, N
         43    2.222E+03                                 F               0         Blade 1 X force, node 15, N
         44   -1.341E+01                                 F               0         Blade 1 Y force, node 15, N
         45    9.334E+01                                 F               0         Blade 1 Z force, node 15, N
         46    2.374E+03                                 F               0         Blade 1 X force, node 16, N
         47   -1.513E+01                                 F               0         Blade 1 Y force, node 16, N
         48    1.101E+02                                 F               0         Blade 1 Z force, node 16, N
         49    2.928E+03                                 F               0         Blade 1 X force, node 17, N
         50   -1.928E+01                                 F               0         Blade 1 Y force, node 17, N
         51    1.439E+02                                 F               0         Blade 1 Z force, node 17, N
         52    2.235E+03                                 F               0         Blade 1 X force, node 18, N
         53   -1.305E+01                                 F               0         Blade 1 Y force, node 18, N
         54    8.817E+01                                 F               0         Blade 1 Z force, node 18, N
         55    2.739E+03                                 F               0         Blade 1 X force, node 19, N
         56   -1.331E+01                                 F               0         Blade 1 Y force, node 19, N
         57    7.335E+01                                 F               0         Blade 1 Z force, node 19, N
         58    2.332E+03                                 F               0         Blade 1 X force, node 20, N
         59   -9.219E+00                                 F               0         Blade 1 Y force, node 20, N
         60    3.510E+01                                 F               0         Blade 1 Z force, node 20, N
         61    3.439E+03                                 F               0         Blade 1 X force, node 21, N
         62   -1.014E+01                                 F               0         Blade 1 Y force, node 21, N
         63    7.006E+00                                 F               0         Blade 1 Z force, node 21, N
         64    3.031E+03                                 F               0         Blade 1 X force, node 22, N
         65   -6.060E+00                                 F               0         Blade 1 Y force, node 22, N
         66   -3.111E+01                                 F               0         Blade 1 Z force, node 22, N
         67    3.109E+03                                 F               0         Blade 1 X force, node 23, N
         68   -3.636E+00                                 F               0         Blade 1 Y force, node 23, N
         69   -6.533E+01                                 F               0         Blade 1 Z force, node 23, N
         70    3.243E+03                                 F               0         Blade 1 X force, node 24, N
         71   -1.252E+00                                 F               0         Blade 1 Y force, node 24, N
         72   -1.011E+02                                 F               0         Blade 1 Z force, node 24, N
         73    3.320E+03                                 F               0         Blade 1 X force, node 25, N
         74    1.155E+00                                 F               0         Blade 1 Y force, node 25, N
         75   -1.350E+02                                 F               0         Blade 1 Z force, node 25, N
         76    3.416E+03                                 F               0         Blade 1 X force, node 26, N
         77    3.548E+00                                 F               0         Blade 1 Y force, node 26, N
         78   -1.695E+02                                 F               0         Blade 1 Z force, node 26, N
         79    4.089E+03                                 F               0         Blade 1 X force, node 27, N
         80    7.077E+00                                 F               0         Blade 1 Y force, node 27, N
         81   -2.395E+02                                 F               0         Blade 1 Z force, node 27, N
         82    3.029E+03                                 F               0         Blade 1 X force, node 28, N
         83    7.184E+00                                 F               0         Blade 1 Y force, node 28, N
         84   -2.026E+02                                 F               0         Blade 1 Z force, node 28, N
         85    3.703E+03                                 F               0         Blade 1 X force, node 29, N
         86    1.070E+01                                 F               0         Blade 1 Y force, node 29, N
         87   -2.725E+02                                 F               0         Blade 1 Z force, node 29, N
         88    3.148E+03                                 F               0         Blade 1 X force, node 30, N
         89    1.064E+01                                 F               0         Blade 1 Y force, node 30, N
         90   -2.517E+02                                 F               0         Blade 1 Z force, node 30, N
         91    4.545E+03                                 F               0         Blade 1 X force, node 31, N
         92    1.787E+01                                 F               0         Blade 1 Y force, node 31, N
         93   -3.959E+02                                 F               0         Blade 1 Z force, node 31, N
         94    3.990E+03                                 F               0         Blade 1 X force, node 32, N
         95    1.780E+01                                 F               0         Blade 1 Y force, node 32, N
         96   -3.749E+02                                 F               0         Blade 1 Z force, node 32, N
         97    4.085E+03                                 F               0         Blade 1 X force, node 33, N
         98    2.016E+01                                 F               0         Blade 1 Y force, node 33, N
         99   -4.088E+02                                 F               0         Blade 1 Z force, node 33, N
        100    4.181E+03                                 F               0         Blade 1 X force, node 34, N
        101    2.252E+01                                 F               0         Blade 1 Y force, node 34, N
        102   -4.429E+02                                 F               0         Blade 1 Z force, node 34, N
        103    4.277E+03                                 F               0         Blade 1 X force, node 35, N
        104    2.487E+01                                 F               0         Blade 1 Y force, node 35, N
        105   -4.768E+02                                 F               0         Blade 1 Z force, node 35, N
        106    4.372E+03                                 F               0         Blade 1 X force, node 36, N
        107    2.721E+01                                 F               0         Blade 1 Y force, node 36, N
        108   -5.106E+02                                 F               0         Blade 1 Z force, node 36, N
        109    5.227E+03                                 F               0         Blade 1 X force, node 37, N
        110    3.471E+01                                 F               0         Blade 1 Y force, node 37, N
        111   -6.386E+02                                 F               0         Blade 1 Z force, node 37, N
        112    3.805E+03                                 F               0         Blade 1 X force, node 38, N
        113    2.675E+01                                 F               0         Blade 1 Y force, node 38, N
        114   -4.841E+02                                 F               0         Blade 1 Z force, node 38, N
        115    4.661E+03                                 F               0         Blade 1 X force, node 39, N
        116    3.424E+01                                 F               0         Blade 1 Y force, node 39, N
        117   -6.121E+02                                 F               0         Blade 1 Z force, node 39, N
        118    3.972E+03                                 F               0         Blade 1 X force, node 40, N
        119    3.040E+01                                 F               0         Blade 1 Y force, node 40, N
        120   -5.374E+02                                 F               0         Blade 1 Z force, node 40, N
        121    5.639E+03                                 F               0         Blade 1 X force, node 41, N
        122    4.510E+01                                 F               0         Blade 1 Y force, node 41, N
        123   -7.882E+02                                 F               0         Blade 1 Z force, node 41, N
        124    4.950E+03                                 F               0         Blade 1 X force, node 42, N
        125    4.125E+01                                 F               0         Blade 1 Y force, node 42, N
        126   -7.133E+02                                 F               0         Blade 1 Z force, node 42, N
        127    5.045E+03                                 F               0         Blade 1 X force, node 43, N
        128    4.357E+01                                 F               0         Blade 1 Y force, node 43, N
        129   -7.469E+02                                 F               0         Blade 1 Z force, node 43, N
        130    5.168E+03                                 F               0         Blade 1 X force, node 44, N
        131    4.614E+01                                 F               0         Blade 1 Y force, node 44, N
        132   -7.846E+02                                 F               0         Blade 1 Z force, node 44, N
        133    5.210E+03                                 F               0         Blade 1 X force, node 45, N
        134    4.797E+01                                 F               0         Blade 1 Y force, node 45, N
        135   -8.098E+02                                 F               0         Blade 1 Z force, node 45, N
        136    5.333E+03                                 F               0         Blade 1 X force, node 46, N
        137    5.054E+01                                 F               0         Blade 1 Y force, node 46, N
        138   -8.475E+02                                 F               0         Blade 1 Z force, node 46, N
        139    6.381E+03                                 F               0         Blade 1 X force, node 47, N
        140    6.224E+01                                 F               0         Blade 1 Y force, node 47, N
        141   -1.037E+03                                 F               0         Blade 1 Z force, node 47, N
        142    4.572E+03                                 F               0         Blade 1 X force, node 48, N
        143    4.579E+01                                 F               0         Blade 1 Y force, node 48, N
        144   -7.585E+02                                 F               0         Blade 1 Z force, node 48, N
        145    5.620E+03                                 F               0         Blade 1 X force, node 49, N
        146    5.749E+01                                 F               0         Blade 1 Y force, node 49, N
        147   -9.479E+02                                 F               0         Blade 1 Z force, node 49, N
        148    4.807E+03                                 F               0         Blade 1 X force, node 50, N
        149    5.017E+01                                 F               0         Blade 1 Y force, node 50, N
        150   -8.238E+02                                 F               0         Blade 1 Z force, node 50, N
        151    6.721E+03                                 F               0         Blade 1 X force, node 51, N
        152    7.174E+01                                 F               0         Blade 1 Y force, node 51, N
        153   -1.172E+03                                 F               0         Blade 1 Z force, node 51, N
        154    5.910E+03                                 F               0         Blade 1 X force, node 52, N
        155    6.443E+01                                 F               0         Blade 1 Y force, node 52, N
        156   -1.048E+03                                 F               0         Blade 1 Z force, node 52, N
        157    6.008E+03                                 F               0         Blade 1 X force, node 53, N
        158    6.675E+01                                 F               0         Blade 1 Y force, node 53, N
        159   -1.082E+03                                 F               0         Blade 1 Z force, node 53, N
        160    6.172E+03                                 F               0         Blade 1 X force, node 54, N
        161    6.983E+01                                 F               0         Blade 1 Y force, node 54, N
        162   -1.128E+03                                 F               0         Blade 1 Z force, node 54, N
        163    6.135E+03                                 F               0         Blade 1 X force, node 55, N
        164    7.061E+01                                 F               0         Blade 1 Y force, node 55, N
        165   -1.137E+03                                 F               0         Blade 1 Z force, node 55, N
        166    6.299E+03                                 F               0         Blade 1 X force, node 56, N
        167    7.369E+01                                 F               0         Blade 1 Y force, node 56, N
        168   -1.182E+03                                 F               0         Blade 1 Z force, node 56, N
        169    7.554E+03                                 F               0         Blade 1 X force, node 57, N
        170    8.985E+01                                 F               0         Blade 1 Y force, node 57, N
        171   -1.437E+03                                 F               0         Blade 1 Z force, node 57, N
        172    5.336E+03                                 F               0         Blade 1 X force, node 58, N
        173    6.447E+01                                 F               0         Blade 1 Y force, node 58, N
        174   -1.028E+03                                 F               0         Blade 1 Z force, node 58, N
        175    6.591E+03                                 F               0         Blade 1 X force, node 59, N
        176    8.062E+01                                 F               0         Blade 1 Y force, node 59, N
        177   -1.283E+03                                 F               0         Blade 1 Z force, node 59, N
        178    5.665E+03                                 F               0         Blade 1 X force, node 60, N
        179    7.015E+01                                 F               0         Blade 1 Y force, node 60, N
        180   -1.114E+03                                 F               0         Blade 1 Z force, node 60, N
        181    7.810E+03                                 F               0         Blade 1 X force, node 61, N
        182    9.803E+01                                 F               0         Blade 1 Y force, node 61, N
        183   -1.552E+03                                 F               0         Blade 1 Z force, node 61, N
        184    6.881E+03                                 F               0         Blade 1 X force, node 62, N
        185    8.754E+01                                 F               0         Blade 1 Y force, node 62, N
        186   -1.383E+03                                 F               0         Blade 1 Z force, node 62, N
        187    6.977E+03                                 F               0         Blade 1 X force, node 63, N
        188    8.983E+01                                 F               0         Blade 1 Y force, node 63, N
        189   -1.416E+03                                 F               0         Blade 1 Z force, node 63, N
        190    7.191E+03                                 F               0         Blade 1 X force, node 64, N
        191    9.367E+01                                 F               0         Blade 1 Y force, node 64, N
        192   -1.473E+03                                 F               0         Blade 1 Z force, node 64, N
        193    7.053E+03                                 F               0         Blade 1 X force, node 65, N
        194    9.289E+01                                 F               0         Blade 1 Y force, node 65, N
        195   -1.458E+03                                 F               0         Blade 1 Z force, node 65, N
        196    7.270E+03                                 F               0         Blade 1 X force, node 66, N
        197    9.676E+01                                 F               0         Blade 1 Y force, node 66, N
        198   -1.516E+03                                 F               0         Blade 1 Z force, node 66, N
        199    8.742E+03                                 F               0         Blade 1 X force, node 67, N
        200    1.176E+02                                 F               0         Blade 1 Y force, node 67, N
        201   -1.840E+03                                 F               0         Blade 1 Z force, node 67, N
        202    6.095E+03                                 F               0         Blade 1 X force, node 68, N
        203    8.286E+01                                 F               0         Blade 1 Y force, node 68, N
        204   -1.294E+03                                 F               0         Blade 1 Z force, node 68, N
        205    7.565E+03                                 F               0         Blade 1 X force, node 69, N
        206    1.037E+02                                 F               0         Blade 1 Y force, node 69, N
        207   -1.617E+03                                 F               0         Blade 1 Z force, node 69, N
        208    6.534E+03                                 F               0         Blade 1 X force, node 70, N
        209    9.033E+01                                 F               0         Blade 1 Y force, node 70, N
        210   -1.406E+03                                 F               0         Blade 1 Z force, node 70, N