
Linearized model: Predictions were generated on 30-Jan-2024 at 18:20:32 using OpenFAST, compiled as a 64-bit application using single precision at commit v3.5.1
 linked with  NWTC Subroutine Library; ElastoDyn; InflowWind; AeroDyn; ServoDyn; HydroDyn; MAP++ (<1.20.10>, <Oct-20-2023>)

Description from the FAST input file: CCT-9 Campign 4 model. Input files to be run with OpenFAST 3.5.0. GitHub branch from Lu Wang (https://github.com/luwang00/openfast/tree/dev) compiled on March 7, 2023.

Simulation information:
   Simulation time:                   501.7500 s
   Rotor Speed:                         0.8794 rad/s
   Azimuth:                             0.4161 rad
   Wind Speed:                         10.0000 m/s
   Number of continuous states:        14
   Number of discrete states:           0
   Number of constraint states:         0
   Number of inputs:                 1890
   Number of outputs:                  19
   Jacobians included in this file?    No

Order of continuous states:
   Row/Column Operating Point                     Rotating Frame? Derivative Order Description
   ---------- ---------------                     --------------- ---------------- -----------
          1    8.881E+00                                 F               2         Platform horizontal surge translation DOF (internal DOF index = DOF_Sg), m
          2   -3.601E-01                                 F               2         Platform horizontal sway translation DOF (internal DOF index = DOF_Sw), m
          3   -1.728E-01                                 F               2         Platform vertical heave translation DOF (internal DOF index = DOF_Hv), m
          4    4.226E-02                                 F               2         Platform roll tilt rotation DOF (internal DOF index = DOF_R), rad
          5    1.154E-01                                 F               2         Platform pitch tilt rotation DOF (internal DOF index = DOF_P), rad
          6    7.576E-03                                 F               2         Platform yaw rotation DOF (internal DOF index = DOF_Y), rad
          7    5.129E+00                                 F               2         Variable speed generator DOF (internal DOF index = DOF_GeAz), rad
          8   -3.221E-03                                 F               2         First time derivative of Platform horizontal surge translation DOF (internal DOF index = DOF_Sg), m/s
          9    2.427E-03                                 F               2         First time derivative of Platform horizontal sway translation DOF (internal DOF index = DOF_Sw), m/s
         10    5.980E-04                                 F               2         First time derivative of Platform vertical heave translation DOF (internal DOF index = DOF_Hv), m/s
         11   -1.010E-04                                 F               2         First time derivative of Platform roll tilt rotation DOF (internal DOF index = DOF_R), rad/s
         12    2.054E-05                                 F               2         First time derivative of Platform pitch tilt rotation DOF (internal DOF index = DOF_P), rad/s
         13   -1.065E-05                                 F               2         First time derivative of Platform yaw rotation DOF (internal DOF index = DOF_Y), rad/s
         14    8.794E-01                                 F               2         First time derivative of Variable speed generator DOF (internal DOF index = DOF_GeAz), rad/s

Order of continuous state derivatives:
   Row/Column Operating Point                     Rotating Frame? Derivative Order Description
   ---------- ---------------                     --------------- ---------------- -----------
          1   -3.221E-03                                 F               2         First time derivative of Platform horizontal surge translation DOF (internal DOF index = DOF_Sg), m/s
          2    2.427E-03                                 F               2         First time derivative of Platform horizontal sway translation DOF (internal DOF index = DOF_Sw), m/s
          3    5.980E-04                                 F               2         First time derivative of Platform vertical heave translation DOF (internal DOF index = DOF_Hv), m/s
          4   -1.010E-04                                 F               2         First time derivative of Platform roll tilt rotation DOF (internal DOF index = DOF_R), rad/s
          5    2.054E-05                                 F               2         First time derivative of Platform pitch tilt rotation DOF (internal DOF index = DOF_P), rad/s
          6   -1.065E-05                                 F               2         First time derivative of Platform yaw rotation DOF (internal DOF index = DOF_Y), rad/s
          7    8.794E-01                                 F               2         First time derivative of Variable speed generator DOF (internal DOF index = DOF_GeAz), rad/s
          8   -2.878E-04                                 F               2         First time derivative of First time derivative of Platform horizontal surge translation DOF (internal DOF index = DOF_Sg), m/s/s
          9   -1.050E-04                                 F               2         First time derivative of First time derivative of Platform horizontal sway translation DOF (internal DOF index = DOF_Sw), m/s/s
         10    1.588E-03                                 F               2         First time derivative of First time derivative of Platform vertical heave translation DOF (internal DOF index = DOF_Hv), m/s/s
         11    6.728E-05                                 F               2         First time derivative of First time derivative of Platform roll tilt rotation DOF (internal DOF index = DOF_R), rad/s/s
         12    4.763E-06                                 F               2         First time derivative of First time derivative of Platform pitch tilt rotation DOF (internal DOF index = DOF_P), rad/s/s
         13   -1.821E-05                                 F               2         First time derivative of First time derivative of Platform yaw rotation DOF (internal DOF index = DOF_Y), rad/s/s
         14   -1.517E-04                                 F               2         First time derivative of First time derivative of Variable speed generator DOF (internal DOF index = DOF_GeAz), rad/s/s

Order of inputs:
     Column   Operating Point                     Rotating Frame? Derivative Order Description
   ---------- ---------------                     --------------- ---------------- -----------
          1    8.146E+01                                 F               0         Blade 1 X force, node 1, N
          2    8.929E+01                                 F               0         Blade 1 Y force, node 1, N
          3    2.622E+01                                 F               0         Blade 1 Z force, node 1, N
          4    3.230E+02                                 F               0         Blade 1 X force, node 2, N
          5    1.656E+02                                 F               0         Blade 1 Y force, node 2, N
          6    9.042E+00                                 F               0         Blade 1 Z force, node 2, N
          7    4.007E+02                                 F               0         Blade 1 X force, node 3, N
          8    1.134E+02                                 F               0         Blade 1 Y force, node 3, N
          9   -3.513E+01                                 F               0         Blade 1 Z force, node 3, N
         10    5.130E+02                                 F               0         Blade 1 X force, node 4, N
         11    8.200E+01                                 F               0         Blade 1 Y force, node 4, N
         12   -7.680E+01                                 F               0         Blade 1 Z force, node 4, N
         13    6.253E+02                                 F               0         Blade 1 X force, node 5, N
         14    5.060E+01                                 F               0         Blade 1 Y force, node 5, N
         15   -1.185E+02                                 F               0         Blade 1 Z force, node 5, N
         16    7.376E+02                                 F               0         Blade 1 X force, node 6, N
         17    1.920E+01                                 F               0         Blade 1 Y force, node 6, N
         18   -1.601E+02                                 F               0         Blade 1 Z force, node 6, N
         19    8.499E+02                                 F               0         Blade 1 X force, node 7, N
         20   -1.221E+01                                 F               0         Blade 1 Y force, node 7, N
         21   -2.018E+02                                 F               0         Blade 1 Z force, node 7, N
         22    9.622E+02                                 F               0         Blade 1 X force, node 8, N
         23   -4.361E+01                                 F               0         Blade 1 Y force, node 8, N
         24   -2.435E+02                                 F               0         Blade 1 Z force, node 8, N
         25    1.074E+03                                 F               0         Blade 1 X force, node 9, N
         26   -7.502E+01                                 F               0         Blade 1 Y force, node 9, N
         27   -2.852E+02                                 F               0         Blade 1 Z force, node 9, N
         28    1.187E+03                                 F               0         Blade 1 X force, node 10, N
         29   -1.064E+02                                 F               0         Blade 1 Y force, node 10, N
         30   -3.268E+02                                 F               0         Blade 1 Z force, node 10, N
         31    1.299E+03                                 F               0         Blade 1 X force, node 11, N
         32   -1.378E+02                                 F               0         Blade 1 Y force, node 11, N
         33   -3.685E+02                                 F               0         Blade 1 Z force, node 11, N
         34    1.411E+03                                 F               0         Blade 1 X force, node 12, N
         35   -1.692E+02                                 F               0         Blade 1 Y force, node 12, N
         36   -4.102E+02                                 F               0         Blade 1 Z force, node 12, N
         37    1.524E+03                                 F               0         Blade 1 X force, node 13, N
         38   -2.006E+02                                 F               0         Blade 1 Y force, node 13, N
         39   -4.518E+02                                 F               0         Blade 1 Z force, node 13, N
         40    1.636E+03                                 F               0         Blade 1 X force, node 14, N
         41   -2.320E+02                                 F               0         Blade 1 Y force, node 14, N
         42   -4.935E+02                                 F               0         Blade 1 Z force, node 14, N
         43    1.748E+03                                 F               0         Blade 1 X force, node 15, N
         44   -2.634E+02                                 F               0         Blade 1 Y force, node 15, N
         45   -5.352E+02                                 F               0         Blade 1 Z force, node 15, N
         46    1.861E+03                                 F               0         Blade 1 X force, node 16, N
         47   -2.948E+02                                 F               0         Blade 1 Y force, node 16, N
         48   -5.769E+02                                 F               0         Blade 1 Z force, node 16, N
         49    2.290E+03                                 F               0         Blade 1 X force, node 17, N
         50   -3.766E+02                                 F               0         Blade 1 Y force, node 17, N
         51   -7.168E+02                                 F               0         Blade 1 Z force, node 17, N
         52    1.763E+03                                 F               0         Blade 1 X force, node 18, N
         53   -2.790E+02                                 F               0         Blade 1 Y force, node 18, N
         54   -5.464E+02                                 F               0         Blade 1 Z force, node 18, N
         55    2.185E+03                                 F               0         Blade 1 X force, node 19, N
         56   -3.251E+02                                 F               0         Blade 1 Y force, node 19, N
         57   -6.668E+02                                 F               0         Blade 1 Z force, node 19, N
         58    1.880E+03                                 F               0         Blade 1 X force, node 20, N
         59   -2.636E+02                                 F               0         Blade 1 Y force, node 20, N
         60   -5.656E+02                                 F               0         Blade 1 Z force, node 20, N
         61    2.804E+03                                 F               0         Blade 1 X force, node 21, N
         62   -3.665E+02                                 F               0         Blade 1 Y force, node 21, N
         63   -8.303E+02                                 F               0         Blade 1 Z force, node 21, N
         64    2.499E+03                                 F               0         Blade 1 X force, node 22, N
         65   -3.037E+02                                 F               0         Blade 1 Y force, node 22, N
         66   -7.283E+02                                 F               0         Blade 1 Z force, node 22, N
         67    2.588E+03                                 F               0         Blade 1 X force, node 23, N
         68   -2.941E+02                                 F               0         Blade 1 Y force, node 23, N
         69   -7.439E+02                                 F               0         Blade 1 Z force, node 23, N
         70    2.723E+03                                 F               0         Blade 1 X force, node 24, N
         71   -2.895E+02                                 F               0         Blade 1 Y force, node 24, N
         72   -7.727E+02                                 F               0         Blade 1 Z force, node 24, N
         73    2.811E+03                                 F               0         Blade 1 X force, node 25, N
         74   -2.790E+02                                 F               0         Blade 1 Y force, node 25, N
         75   -7.877E+02                                 F               0         Blade 1 Z force, node 25, N
         76    2.914E+03                                 F               0         Blade 1 X force, node 26, N
         77   -2.702E+02                                 F               0         Blade 1 Y force, node 26, N
         78   -8.070E+02                                 F               0         Blade 1 Z force, node 26, N
         79    3.515E+03                                 F               0         Blade 1 X force, node 27, N
         80   -3.031E+02                                 F               0         Blade 1 Y force, node 27, N
         81   -9.620E+02                                 F               0         Blade 1 Z force, node 27, N
         82    2.622E+03                                 F               0         Blade 1 X force, node 28, N
         83   -2.102E+02                                 F               0         Blade 1 Y force, node 28, N
         84   -7.096E+02                                 F               0         Blade 1 Z force, node 28, N
         85    3.224E+03                                 F               0         Blade 1 X force, node 29, N
         86   -2.426E+02                                 F               0         Blade 1 Y force, node 29, N
         87   -8.643E+02                                 F               0         Blade 1 Z force, node 29, N
         88    2.755E+03                                 F               0         Blade 1 X force, node 30, N
         89   -1.946E+02                                 F               0         Blade 1 Y force, node 30, N
         90   -7.323E+02                                 F               0         Blade 1 Z force, node 30, N
         91    4.001E+03                                 F               0         Blade 1 X force, node 31, N
         92   -2.620E+02                                 F               0         Blade 1 Y force, node 31, N
         93   -1.053E+03                                 F               0         Blade 1 Z force, node 31, N
         94    3.532E+03                                 F               0         Blade 1 X force, node 32, N
         95   -2.136E+02                                 F               0         Blade 1 Y force, node 32, N
         96   -9.208E+02                                 F               0         Blade 1 Z force, node 32, N
         97    3.634E+03                                 F               0         Blade 1 X force, node 33, N
         98   -2.037E+02                                 F               0         Blade 1 Y force, node 33, N
         99   -9.392E+02                                 F               0         Blade 1 Z force, node 33, N
        100    3.737E+03                                 F               0         Blade 1 X force, node 34, N
        101   -1.937E+02                                 F               0         Blade 1 Y force, node 34, N
        102   -9.579E+02                                 F               0         Blade 1 Z force, node 34, N
        103    3.840E+03                                 F               0         Blade 1 X force, node 35, N
        104   -1.835E+02                                 F               0         Blade 1 Y force, node 35, N
        105   -9.764E+02                                 F               0         Blade 1 Z force, node 35, N
        106    3.941E+03                                 F               0         Blade 1 X force, node 36, N
        107   -1.733E+02                                 F               0         Blade 1 Y force, node 36, N
        108   -9.947E+02                                 F               0         Blade 1 Z force, node 36, N
        109    4.732E+03                                 F               0         Blade 1 X force, node 37, N
        110   -1.897E+02                                 F               0         Blade 1 Y force, node 37, N
        111   -1.185E+03                                 F               0         Blade 1 Z force, node 37, N
        112    3.458E+03                                 F               0         Blade 1 X force, node 38, N
        113   -1.260E+02                                 F               0         Blade 1 Y force, node 38, N
        114   -8.596E+02                                 F               0         Blade 1 Z force, node 38, N
        115    4.249E+03                                 F               0         Blade 1 X force, node 39, N
        116   -1.423E+02                                 F               0         Blade 1 Y force, node 39, N
        117   -1.050E+03                                 F               0         Blade 1 Z force, node 39, N
        118    3.633E+03                                 F               0         Blade 1 X force, node 40, N
        119   -1.113E+02                                 F               0         Blade 1 Y force, node 40, N
        120   -8.924E+02                                 F               0         Blade 1 Z force, node 40, N
        121    5.174E+03                                 F               0         Blade 1 X force, node 41, N
        122   -1.420E+02                                 F               0         Blade 1 Y force, node 41, N
        123   -1.263E+03                                 F               0         Blade 1 Z force, node 41, N
        124    4.556E+03                                 F               0         Blade 1 X force, node 42, N
        125   -1.107E+02                                 F               0         Blade 1 Y force, node 42, N
        126   -1.105E+03                                 F               0         Blade 1 Z force, node 42, N
        127    4.657E+03                                 F               0         Blade 1 X force, node 43, N
        128   -9.993E+01                                 F               0         Blade 1 Y force, node 43, N
        129   -1.122E+03                                 F               0         Blade 1 Z force, node 43, N
        130    4.783E+03                                 F               0         Blade 1 X force, node 44, N
        131   -8.962E+01                                 F               0         Blade 1 Y force, node 44, N
        132   -1.146E+03                                 F               0         Blade 1 Z force, node 44, N
        133    4.834E+03                                 F               0         Blade 1 X force, node 45, N
        134   -7.789E+01                                 F               0         Blade 1 Y force, node 45, N
        135   -1.152E+03                                 F               0         Blade 1 Z force, node 45, N
        136    4.961E+03                                 F               0         Blade 1 X force, node 46, N
        137   -6.750E+01                                 F               0         Blade 1 Y force, node 46, N
        138   -1.176E+03                                 F               0         Blade 1 Z force, node 46, N
        139    5.951E+03                                 F               0         Blade 1 X force, node 47, N
        140   -6.565E+01                                 F               0         Blade 1 Y force, node 47, N
        141   -1.403E+03                                 F               0         Blade 1 Z force, node 47, N
        142    4.274E+03                                 F               0         Blade 1 X force, node 48, N
        143   -3.669E+01                                 F               0         Blade 1 Y force, node 48, N
        144   -1.002E+03                                 F               0         Blade 1 Z force, node 48, N
        145    5.263E+03                                 F               0         Blade 1 X force, node 49, N
        146   -3.469E+01                                 F               0         Blade 1 Y force, node 49, N
        147   -1.229E+03                                 F               0         Blade 1 Z force, node 49, N
        148    4.510E+03                                 F               0         Blade 1 X force, node 50, N
        149   -2.093E+01                                 F               0         Blade 1 Y force, node 50, N
        150   -1.049E+03                                 F               0         Blade 1 Z force, node 50, N
        151    6.318E+03                                 F               0         Blade 1 X force, node 51, N
        152   -1.543E+01                                 F               0         Blade 1 Y force, node 51, N
        153   -1.462E+03                                 F               0         Blade 1 Z force, node 51, N
        154    5.567E+03                                 F               0         Blade 1 X force, node 52, N
        155   -1.668E+00                                 F               0         Blade 1 Y force, node 52, N
        156   -1.282E+03                                 F               0         Blade 1 Z force, node 52, N
        157    5.668E+03                                 F               0         Blade 1 X force, node 53, N
        158    9.339E+00                                 F               0         Blade 1 Y force, node 53, N
        159   -1.300E+03                                 F               0         Blade 1 Z force, node 53, N
        160    5.834E+03                                 F               0         Blade 1 X force, node 54, N
        161    2.063E+01                                 F               0         Blade 1 Y force, node 54, N
        162   -1.333E+03                                 F               0         Blade 1 Z force, node 54, N
        163    5.808E+03                                 F               0         Blade 1 X force, node 55, N
        164    3.121E+01                                 F               0         Blade 1 Y force, node 55, N
        165   -1.321E+03                                 F               0         Blade 1 Z force, node 55, N
        166    5.973E+03                                 F               0         Blade 1 X force, node 56, N
        167    4.261E+01                                 F               0         Blade 1 Y force, node 56, N
        168   -1.354E+03                                 F               0         Blade 1 Z force, node 56, N
        169    7.173E+03                                 F               0         Blade 1 X force, node 57, N
        170    6.430E+01                                 F               0         Blade 1 Y force, node 57, N
        171   -1.619E+03                                 F               0         Blade 1 Z force, node 57, N
        172    5.075E+03                                 F               0         Blade 1 X force, node 58, N
        173    5.435E+01                                 F               0         Blade 1 Y force, node 58, N
        174   -1.141E+03                                 F               0         Blade 1 Z force, node 58, N
        175    6.276E+03                                 F               0         Blade 1 X force, node 59, N
        176    7.612E+01                                 F               0         Blade 1 Y force, node 59, N
        177   -1.407E+03                                 F               0         Blade 1 Z force, node 59, N
        178    5.400E+03                                 F               0         Blade 1 X force, node 60, N
        179    7.311E+01                                 F               0         Blade 1 Y force, node 60, N
        180   -1.206E+03                                 F               0         Blade 1 Z force, node 60, N
        181    7.454E+03                                 F               0         Blade 1 X force, node 61, N
        182    1.128E+02                                 F               0         Blade 1 Y force, node 61, N
        183   -1.659E+03                                 F               0         Blade 1 Z force, node 61, N
        184    6.576E+03                                 F               0         Blade 1 X force, node 62, N
        185    1.099E+02                                 F               0         Blade 1 Y force, node 62, N
        186   -1.459E+03                                 F               0         Blade 1 Z force, node 62, N
        187    6.676E+03                                 F               0         Blade 1 X force, node 63, N
        188    1.213E+02                                 F               0         Blade 1 Y force, node 63, N
        189   -1.476E+03                                 F               0         Blade 1 Z force, node 63, N
        190    6.888E+03                                 F               0         Blade 1 X force, node 64, N
        191    1.349E+02                                 F               0         Blade 1 Y force, node 64, N
        192   -1.518E+03                                 F               0         Blade 1 Z force, node 64, N
        193    6.763E+03                                 F               0         Blade 1 X force, node 65, N
        194    1.416E+02                                 F               0         Blade 1 Y force, node 65, N
        195   -1.486E+03                                 F               0         Blade 1 Z force, node 65, N
        196    6.979E+03                                 F               0         Blade 1 X force, node 66, N
        197    1.551E+02                                 F               0         Blade 1 Y force, node 66, N
        198   -1.529E+03                                 F               0         Blade 1 Z force, node 66, N
        199    8.400E+03                                 F               0         Blade 1 X force, node 67, N
        200    1.982E+02                                 F               0         Blade 1 Y force, node 67, N
        201   -1.834E+03                                 F               0         Blade 1 Z force, node 67, N
        202    5.863E+03                                 F               0         Blade 1 X force, node 68, N
        203    1.460E+02                                 F               0         Blade 1 Y force, node 68, N
        204   -1.276E+03                                 F               0         Blade 1 Z force, node 68, N
        205    7.282E+03                                 F               0         Blade 1 X force, node 69, N
        206    1.892E+02                                 F               0         Blade 1 Y force, node 69, N
        207   -1.581E+03                                 F               0         Blade 1 Z force, node 69, N
        208    6.296E+03                                 F               0         Blade 1 X force, node 70, N
        209    1.703E+02                                 F               0         Blade 1 Y force, node 70, N
        210   -1.364E+03                                 F               0         Blade 1 Z force, node 70, N