
Linearized model: Predictions were generated on 12-Feb-2024 at 18:31:58 using OpenFAST, compiled as a 64-bit application using single precision at commit v3.5.1
 linked with  NWTC Subroutine Library; ElastoDyn; InflowWind; AeroDyn; ServoDyn; HydroDyn; MAP++ (<1.20.10>, <Oct-20-2023>)

Description from the FAST input file: CCT-9 Campign 4 model. Input files to be run with OpenFAST 3.5.0. GitHub branch from Lu Wang (https://github.com/luwang00/openfast/tree/dev) compiled on March 7, 2023.

Simulation information:
   Simulation time:                  1001.7500 s
   Rotor Speed:                         1.0461 rad/s
   Azimuth:                             1.4977 rad
   Wind Speed:                         12.0000 m/s
   Number of continuous states:         0
   Number of discrete states:           0
   Number of constraint states:         0
   Number of inputs:                 1746
   Number of outputs:                   4
   Jacobians included in this file?    No

Order of inputs:
     Column   Operating Point                     Rotating Frame? Derivative Order Description
   ---------- ---------------                     --------------- ---------------- -----------
          1    1.518E+01                                 F               0         Tower X translation displacement, node 1, m
          2   -1.056E+00                                 F               0         Tower Y translation displacement, node 1, m
          3   -4.786E-01                                 F               0         Tower Z translation displacement, node 1, m
          4    1.704E+01                                 F               0         Tower X translation displacement, node 2, m
          5   -1.613E+00                                 F               0         Tower Y translation displacement, node 2, m
          6   -6.326E-01                                 F               0         Tower Z translation displacement, node 2, m
          7    1.891E+01                                 F               0         Tower X translation displacement, node 3, m
          8   -2.169E+00                                 F               0         Tower Y translation displacement, node 3, m
          9   -7.866E-01                                 F               0         Tower Z translation displacement, node 3, m
         10    2.077E+01                                 F               0         Tower X translation displacement, node 4, m
         11   -2.726E+00                                 F               0         Tower Y translation displacement, node 4, m
         12   -9.406E-01                                 F               0         Tower Z translation displacement, node 4, m
         13    2.263E+01                                 F               0         Tower X translation displacement, node 5, m
         14   -3.282E+00                                 F               0         Tower Y translation displacement, node 5, m
         15   -1.095E+00                                 F               0         Tower Z translation displacement, node 5, m
         16    2.450E+01                                 F               0         Tower X translation displacement, node 6, m
         17   -3.839E+00                                 F               0         Tower Y translation displacement, node 6, m
         18   -1.249E+00                                 F               0         Tower Z translation displacement, node 6, m
         19    2.636E+01                                 F               0         Tower X translation displacement, node 7, m
         20   -4.395E+00                                 F               0         Tower Y translation displacement, node 7, m
         21   -1.403E+00                                 F               0         Tower Z translation displacement, node 7, m
         22    2.822E+01                                 F               0         Tower X translation displacement, node 8, m
         23   -4.952E+00                                 F               0         Tower Y translation displacement, node 8, m
         24   -1.557E+00                                 F               0         Tower Z translation displacement, node 8, m
         25    3.009E+01                                 F               0         Tower X translation displacement, node 9, m
         26   -5.508E+00                                 F               0         Tower Y translation displacement, node 9, m
         27   -1.710E+00                                 F               0         Tower Z translation displacement, node 9, m
         28    3.195E+01                                 F               0         Tower X translation displacement, node 10, m
         29   -6.065E+00                                 F               0         Tower Y translation displacement, node 10, m
         30   -1.864E+00                                 F               0         Tower Z translation displacement, node 10, m
         31    3.381E+01                                 F               0         Tower X translation displacement, node 11, m
         32   -6.621E+00                                 F               0         Tower Y translation displacement, node 11, m
         33   -2.018E+00                                 F               0         Tower Z translation displacement, node 11, m
         34    9.885E-01,  1.463E-02, -1.503E-01         F               0         Tower X orientation angle, node 1, rad
         35   -7.681E-03,  9.989E-01,  4.673E-02         F               0         Tower Y orientation angle, node 1, rad
         36    1.508E-01, -4.504E-02,  9.875E-01         F               0         Tower Z orientation angle, node 1, rad
         37    9.885E-01,  1.463E-02, -1.503E-01         F               0         Tower X orientation angle, node 2, rad
         38   -7.681E-03,  9.989E-01,  4.673E-02         F               0         Tower Y orientation angle, node 2, rad
         39    1.508E-01, -4.504E-02,  9.875E-01         F               0         Tower Z orientation angle, node 2, rad
         40    9.885E-01,  1.463E-02, -1.503E-01         F               0         Tower X orientation angle, node 3, rad
         41   -7.681E-03,  9.989E-01,  4.673E-02         F               0         Tower Y orientation angle, node 3, rad
         42    1.508E-01, -4.504E-02,  9.875E-01         F               0         Tower Z orientation angle, node 3, rad
         43    9.885E-01,  1.463E-02, -1.503E-01         F               0         Tower X orientation angle, node 4, rad
         44   -7.681E-03,  9.989E-01,  4.673E-02         F               0         Tower Y orientation angle, node 4, rad
         45    1.508E-01, -4.504E-02,  9.875E-01         F               0         Tower Z orientation angle, node 4, rad
         46    9.885E-01,  1.463E-02, -1.503E-01         F               0         Tower X orientation angle, node 5, rad
         47   -7.681E-03,  9.989E-01,  4.673E-02         F               0         Tower Y orientation angle, node 5, rad
         48    1.508E-01, -4.504E-02,  9.875E-01         F               0         Tower Z orientation angle, node 5, rad
         49    9.885E-01,  1.463E-02, -1.503E-01         F               0         Tower X orientation angle, node 6, rad
         50   -7.681E-03,  9.989E-01,  4.673E-02         F               0         Tower Y orientation angle, node 6, rad
         51    1.508E-01, -4.504E-02,  9.875E-01         F               0         Tower Z orientation angle, node 6, rad
         52    9.885E-01,  1.463E-02, -1.503E-01         F               0         Tower X orientation angle, node 7, rad
         53   -7.681E-03,  9.989E-01,  4.673E-02         F               0         Tower Y orientation angle, node 7, rad
         54    1.508E-01, -4.504E-02,  9.875E-01         F               0         Tower Z orientation angle, node 7, rad
         55    9.885E-01,  1.463E-02, -1.503E-01         F               0         Tower X orientation angle, node 8, rad
         56   -7.681E-03,  9.989E-01,  4.673E-02         F               0         Tower Y orientation angle, node 8, rad
         57    1.508E-01, -4.504E-02,  9.875E-01         F               0         Tower Z orientation angle, node 8, rad
         58    9.885E-01,  1.463E-02, -1.503E-01         F               0         Tower X orientation angle, node 9, rad
         59   -7.681E-03,  9.989E-01,  4.673E-02         F               0         Tower Y orientation angle, node 9, rad
         60    1.508E-01, -4.504E-02,  9.875E-01         F               0         Tower Z orientation angle, node 9, rad
         61    9.885E-01,  1.463E-02, -1.503E-01         F               0         Tower X orientation angle, node 10, rad
         62   -7.681E-03,  9.989E-01,  4.673E-02         F               0         Tower Y orientation angle, node 10, rad
         63    1.508E-01, -4.504E-02,  9.875E-01         F               0         Tower Z orientation angle, node 10, rad
         64    9.885E-01,  1.463E-02, -1.503E-01         F               0         Tower X orientation angle, node 11, rad
         65   -7.681E-03,  9.989E-01,  4.673E-02         F               0         Tower Y orientation angle, node 11, rad
         66    1.508E-01, -4.504E-02,  9.875E-01         F               0         Tower Z orientation angle, node 11, rad
         67   -7.727E-04                                 F               0         Tower X translation velocity, node 1, m/s
         68   -3.954E-03                                 F               0         Tower Y translation velocity, node 1, m/s
         69   -6.744E-04                                 F               0         Tower Z translation velocity, node 1, m/s
         70   -1.207E-03                                 F               0         Tower X translation velocity, node 2, m/s
         71   -6.967E-03                                 F               0         Tower Y translation velocity, node 2, m/s
         72   -7.455E-04                                 F               0         Tower Z translation velocity, node 2, m/s
         73   -1.641E-03                                 F               0         Tower X translation velocity, node 3, m/s
         74   -9.979E-03                                 F               0         Tower Y translation velocity, node 3, m/s
         75   -8.165E-04                                 F               0         Tower Z translation velocity, node 3, m/s
         76   -2.076E-03                                 F               0         Tower X translation velocity, node 4, m/s
         77   -1.299E-02                                 F               0         Tower Y translation velocity, node 4, m/s
         78   -8.876E-04                                 F               0         Tower Z translation velocity, node 4, m/s
         79   -2.510E-03                                 F               0         Tower X translation velocity, node 5, m/s
         80   -1.600E-02                                 F               0         Tower Y translation velocity, node 5, m/s
         81   -9.587E-04                                 F               0         Tower Z translation velocity, node 5, m/s
         82   -2.944E-03                                 F               0         Tower X translation velocity, node 6, m/s
         83   -1.902E-02                                 F               0         Tower Y translation velocity, node 6, m/s
         84   -1.030E-03                                 F               0         Tower Z translation velocity, node 6, m/s
         85   -3.379E-03                                 F               0         Tower X translation velocity, node 7, m/s
         86   -2.203E-02                                 F               0         Tower Y translation velocity, node 7, m/s
         87   -1.101E-03                                 F               0         Tower Z translation velocity, node 7, m/s
         88   -3.813E-03                                 F               0         Tower X translation velocity, node 8, m/s
         89   -2.504E-02                                 F               0         Tower Y translation velocity, node 8, m/s
         90   -1.172E-03                                 F               0         Tower Z translation velocity, node 8, m/s
         91   -4.248E-03                                 F               0         Tower X translation velocity, node 9, m/s
         92   -2.806E-02                                 F               0         Tower Y translation velocity, node 9, m/s
         93   -1.243E-03                                 F               0         Tower Z translation velocity, node 9, m/s
         94   -4.682E-03                                 F               0         Tower X translation velocity, node 10, m/s
         95   -3.107E-02                                 F               0         Tower Y translation velocity, node 10, m/s
         96   -1.314E-03                                 F               0         Tower Z translation velocity, node 10, m/s
         97   -5.116E-03                                 F               0         Tower X translation velocity, node 11, m/s
         98   -3.408E-02                                 F               0         Tower Y translation velocity, node 11, m/s
         99   -1.385E-03                                 F               0         Tower Z translation velocity, node 11, m/s
        100    3.512E+01                                 F               0         Hub X translation displacement, node 1, m
        101   -7.133E+00                                 F               0         Hub Y translation displacement, node 1, m
        102   -4.931E-01                                 F               0         Hub Z translation displacement, node 1, m
        103    9.674E-01,  1.926E-02, -2.527E-01         F               0         Hub X orientation angle, node 1, rad
        104    2.521E-01,  2.982E-02,  9.672E-01         F               0         Hub Y orientation angle, node 1, rad
        105    2.617E-02, -9.994E-01,  2.399E-02         F               0         Hub Z orientation angle, node 1, rad
        106    1.012E+00                                 F               0         Hub X rotation velocity, node 1, rad/s
        107    2.011E-02                                 F               0         Hub Y rotation velocity, node 1, rad/s
        108   -2.643E-01                                 F               0         Hub Z rotation velocity, node 1, rad/s
        109    9.595E-01,  1.837E-02, -2.813E-01         F               0         Blade root 1 X orientation angle, node 1, rad
        110    2.807E-01,  3.038E-02,  9.593E-01         F               0         Blade root 1 Y orientation angle, node 1, rad
        111    2.617E-02, -9.994E-01,  2.399E-02         F               0         Blade root 1 Z orientation angle, node 1, rad
        112    9.700E-01,  4.537E-02, -2.389E-01         F               0         Blade root 2 X orientation angle, node 1, rad
        113   -7.463E-02, -8.794E-01, -4.701E-01         F               0         Blade root 2 Y orientation angle, node 1, rad
        114   -2.314E-01,  4.739E-01, -8.497E-01         F               0         Blade root 2 Z orientation angle, node 1, rad
        115    9.713E-01, -5.981E-03, -2.376E-01         F               0         Blade root 3 X orientation angle, node 1, rad
        116   -1.199E-01,  8.508E-01, -5.117E-01         F               0         Blade root 3 Y orientation angle, node 1, rad
        117    2.052E-01,  5.255E-01,  8.257E-01         F               0         Blade root 3 Z orientation angle, node 1, rad
        118    3.469E+01                                 F               0         Blade 1 X translation displacement, node 1, m
        119   -1.267E+01                                 F               0         Blade 1 Y translation displacement, node 1, m
        120   -5.870E+00                                 F               0         Blade 1 Z translation displacement, node 1, m
        121    3.458E+01                                 F               0         Blade 1 X translation displacement, node 2, m
        122   -1.400E+01                                 F               0         Blade 1 Y translation displacement, node 2, m
        123   -7.165E+00                                 F               0         Blade 1 Z translation displacement, node 2, m
        124    3.316E+01                                 F               0         Blade 1 X translation displacement, node 3, m
        125   -3.214E+01                                 F               0         Blade 1 Y translation displacement, node 3, m
        126   -2.478E+01                                 F               0         Blade 1 Z translation displacement, node 3, m
        127    3.286E+01                                 F               0         Blade 1 X translation displacement, node 4, m
        128   -3.601E+01                                 F               0         Blade 1 Y translation displacement, node 4, m
        129   -2.854E+01                                 F               0         Blade 1 Z translation displacement, node 4, m
        130    3.255E+01                                 F               0         Blade 1 X translation displacement, node 5, m
        131   -3.988E+01                                 F               0         Blade 1 Y translation displacement, node 5, m
        132   -3.229E+01                                 F               0         Blade 1 Z translation displacement, node 5, m
        133    3.225E+01                                 F               0         Blade 1 X translation displacement, node 6, m
        134   -4.374E+01                                 F               0         Blade 1 Y translation displacement, node 6, m
        135   -3.604E+01                                 F               0         Blade 1 Z translation displacement, node 6, m
        136    3.195E+01                                 F               0         Blade 1 X translation displacement, node 7, m
        137   -4.761E+01                                 F               0         Blade 1 Y translation displacement, node 7, m
        138   -3.980E+01                                 F               0         Blade 1 Z translation displacement, node 7, m
        139    3.164E+01                                 F               0         Blade 1 X translation displacement, node 8, m
        140   -5.147E+01                                 F               0         Blade 1 Y translation displacement, node 8, m
        141   -4.355E+01                                 F               0         Blade 1 Z translation displacement, node 8, m
        142    3.134E+01                                 F               0         Blade 1 X translation displacement, node 9, m
        143   -5.534E+01                                 F               0         Blade 1 Y translation displacement, node 9, m
        144   -4.731E+01                                 F               0         Blade 1 Z translation displacement, node 9, m
        145    3.104E+01                                 F               0         Blade 1 X translation displacement, node 10, m
        146   -5.920E+01                                 F               0         Blade 1 Y translation displacement, node 10, m
        147   -5.106E+01                                 F               0         Blade 1 Z translation displacement, node 10, m
        148    3.074E+01                                 F               0         Blade 1 X translation displacement, node 11, m
        149   -6.307E+01                                 F               0         Blade 1 Y translation displacement, node 11, m
        150   -5.481E+01                                 F               0         Blade 1 Z translation displacement, node 11, m
        151    3.043E+01                                 F               0         Blade 1 X translation displacement, node 12, m
        152   -6.693E+01                                 F               0         Blade 1 Y translation displacement, node 12, m
        153   -5.857E+01                                 F               0         Blade 1 Z translation displacement, node 12, m
        154    3.013E+01                                 F               0         Blade 1 X translation displacement, node 13, m
        155   -7.080E+01                                 F               0         Blade 1 Y translation displacement, node 13, m
        156   -6.232E+01                                 F               0         Blade 1 Z translation displacement, node 13, m
        157    2.983E+01                                 F               0         Blade 1 X translation displacement, node 14, m
        158   -7.466E+01                                 F               0         Blade 1 Y translation displacement, node 14, m
        159   -6.607E+01                                 F               0         Blade 1 Z translation displacement, node 14, m
        160    2.952E+01                                 F               0         Blade 1 X translation displacement, node 15, m
        161   -7.853E+01                                 F               0         Blade 1 Y translation displacement, node 15, m
        162   -6.983E+01                                 F               0         Blade 1 Z translation displacement, node 15, m
        163    2.922E+01                                 F               0         Blade 1 X translation displacement, node 16, m
        164   -8.239E+01                                 F               0         Blade 1 Y translation displacement, node 16, m
        165   -7.358E+01                                 F               0         Blade 1 Z translation displacement, node 16, m
        166    2.892E+01                                 F               0         Blade 1 X translation displacement, node 17, m
        167   -8.626E+01                                 F               0         Blade 1 Y translation displacement, node 17, m
        168   -7.733E+01                                 F               0         Blade 1 Z translation displacement, node 17, m
        169    2.861E+01                                 F               0         Blade 1 X translation displacement, node 18, m
        170   -9.012E+01                                 F               0         Blade 1 Y translation displacement, node 18, m
        171   -8.109E+01                                 F               0         Blade 1 Z translation displacement, node 18, m
        172    2.831E+01                                 F               0         Blade 1 X translation displacement, node 19, m
        173   -9.399E+01                                 F               0         Blade 1 Y translation displacement, node 19, m
        174   -8.484E+01                                 F               0         Blade 1 Z translation displacement, node 19, m
        175    2.801E+01                                 F               0         Blade 1 X translation displacement, node 20, m
        176   -9.785E+01                                 F               0         Blade 1 Y translation displacement, node 20, m
        177   -8.860E+01                                 F               0         Blade 1 Z translation displacement, node 20, m
        178    2.770E+01                                 F               0         Blade 1 X translation displacement, node 21, m
        179   -1.017E+02                                 F               0         Blade 1 Y translation displacement, node 21, m
        180   -9.235E+01                                 F               0         Blade 1 Z translation displacement, node 21, m
        181    2.740E+01                                 F               0         Blade 1 X translation displacement, node 22, m
        182   -1.056E+02                                 F               0         Blade 1 Y translation displacement, node 22, m
        183   -9.610E+01                                 F               0         Blade 1 Z translation displacement, node 22, m
        184    2.710E+01                                 F               0         Blade 1 X translation displacement, node 23, m
        185   -1.094E+02                                 F               0         Blade 1 Y translation displacement, node 23, m
        186   -9.986E+01                                 F               0         Blade 1 Z translation displacement, node 23, m
        187    2.680E+01                                 F               0         Blade 1 X translation displacement, node 24, m
        188   -1.133E+02                                 F               0         Blade 1 Y translation displacement, node 24, m
        189   -1.036E+02                                 F               0         Blade 1 Z translation displacement, node 24, m
        190    2.649E+01                                 F               0         Blade 1 X translation displacement, node 25, m
        191   -1.172E+02                                 F               0         Blade 1 Y translation displacement, node 25, m
        192   -1.074E+02                                 F               0         Blade 1 Z translation displacement, node 25, m
        193    2.619E+01                                 F               0         Blade 1 X translation displacement, node 26, m
        194   -1.210E+02                                 F               0         Blade 1 Y translation displacement, node 26, m
        195   -1.111E+02                                 F               0         Blade 1 Z translation displacement, node 26, m
        196    2.589E+01                                 F               0         Blade 1 X translation displacement, node 27, m
        197   -1.249E+02                                 F               0         Blade 1 Y translation displacement, node 27, m
        198   -1.149E+02                                 F               0         Blade 1 Z translation displacement, node 27, m
        199    2.563E+01                                 F               0         Blade 1 X translation displacement, node 28, m
        200   -1.282E+02                                 F               0         Blade 1 Y translation displacement, node 28, m
        201   -1.181E+02                                 F               0         Blade 1 Z translation displacement, node 28, m
        202    7.259E-01,  2.493E-03, -6.878E-01         F               0         Blade 1 X orientation angle, node 1, rad
        203    6.873E-01,  3.541E-02,  7.255E-01         F               0         Blade 1 Y orientation angle, node 1, rad
        204    2.617E-02, -9.994E-01,  2.399E-02         F               0         Blade 1 Z orientation angle, node 1, rad
        205    7.259E-01,  2.493E-03, -6.878E-01         F               0         Blade 1 X orientation angle, node 2, rad
        206    6.873E-01,  3.541E-02,  7.255E-01         F               0         Blade 1 Y orientation angle, node 2, rad
        207    2.617E-02, -9.994E-01,  2.399E-02         F               0         Blade 1 Z orientation angle, node 2, rad
        208    8.681E-01,  1.081E-02, -4.962E-01         F               0         Blade 1 X orientation angle, node 3, rad
        209    4.957E-01,  3.381E-02,  8.679E-01         F               0         Blade 1 Y orientation angle, node 3, rad
        210    2.617E-02, -9.994E-01,  2.399E-02         F               0         Blade 1 Z orientation angle, node 3, rad
        211    8.883E-01,  1.223E-02, -4.592E-01         F               0         Blade 1 X orientation angle, node 4, rad
        212    4.586E-01,  3.333E-02,  8.880E-01         F               0         Blade 1 Y orientation angle, node 4, rad
        213    2.617E-02, -9.994E-01,  2.399E-02         F               0         Blade 1 Z orientation angle, node 4, rad
        214    9.030E-01,  1.333E-02, -4.295E-01         F               0         Blade 1 X orientation angle, node 5, rad
        215    4.289E-01,  3.290E-02,  9.028E-01         F               0         Blade 1 Y orientation angle, node 5, rad
        216    2.617E-02, -9.994E-01,  2.399E-02         F               0         Blade 1 Z orientation angle, node 5, rad
        217    9.140E-01,  1.420E-02, -4.054E-01         F               0         Blade 1 X orientation angle, node 6, rad
        218    4.048E-01,  3.254E-02,  9.138E-01         F               0         Blade 1 Y orientation angle, node 6, rad
        219    2.617E-02, -9.994E-01,  2.399E-02         F               0         Blade 1 Z orientation angle, node 6, rad
        220    9.227E-01,  1.491E-02, -3.853E-01         F               0         Blade 1 X orientation angle, node 7, rad
        221    3.847E-01,  3.222E-02,  9.225E-01         F               0         Blade 1 Y orientation angle, node 7, rad
        222    2.617E-02, -9.994E-01,  2.399E-02         F               0         Blade 1 Z orientation angle, node 7, rad
        223    9.295E-01,  1.549E-02, -3.685E-01         F               0         Blade 1 X orientation angle, node 8, rad
        224    3.679E-01,  3.194E-02,  9.293E-01         F               0         Blade 1 Y orientation angle, node 8, rad
        225    2.617E-02, -9.994E-01,  2.399E-02         F               0         Blade 1 Z orientation angle, node 8, rad
        226    9.350E-01,  1.598E-02, -3.542E-01         F               0         Blade 1 X orientation angle, node 9, rad
        227    3.536E-01,  3.170E-02,  9.349E-01         F               0         Blade 1 Y orientation angle, node 9, rad