
Linearized model: Predictions were generated on 30-Jan-2024 at 18:20:32 using OpenFAST, compiled as a 64-bit application using single precision at commit v3.5.1
 linked with  NWTC Subroutine Library; ElastoDyn; InflowWind; AeroDyn; ServoDyn; HydroDyn; MAP++ (<1.20.10>, <Oct-20-2023>)

Description from the FAST input file: CCT-9 Campign 4 model. Input files to be run with OpenFAST 3.5.0. GitHub branch from Lu Wang (https://github.com/luwang00/openfast/tree/dev) compiled on March 7, 2023.

Simulation information:
   Simulation time:                   502.2250 s
   Rotor Speed:                         0.8794 rad/s
   Azimuth:                             0.8338 rad
   Wind Speed:                         10.0000 m/s
   Number of continuous states:        14
   Number of discrete states:           0
   Number of constraint states:         0
   Number of inputs:                 3988
   Number of outputs:                  36
   Jacobians included in this file?    No

Order of continuous states:
   Row/Column Operating Point                     Rotating Frame? Derivative Order Description
   ---------- ---------------                     --------------- ---------------- -----------
          1    8.880E+00                                 F               2         ED Platform horizontal surge translation DOF (internal DOF index = DOF_Sg), m
          2   -3.590E-01                                 F               2         ED Platform horizontal sway translation DOF (internal DOF index = DOF_Sw), m
          3   -1.724E-01                                 F               2         ED Platform vertical heave translation DOF (internal DOF index = DOF_Hv), m
          4    4.222E-02                                 F               2         ED Platform roll tilt rotation DOF (internal DOF index = DOF_R), rad
          5    1.154E-01                                 F               2         ED Platform pitch tilt rotation DOF (internal DOF index = DOF_P), rad
          6    7.569E-03                                 F               2         ED Platform yaw rotation DOF (internal DOF index = DOF_Y), rad
          7    5.546E+00                                 F               2         ED Variable speed generator DOF (internal DOF index = DOF_GeAz), rad
          8   -3.351E-03                                 F               2         ED First time derivative of Platform horizontal surge translation DOF (internal DOF index = DOF_Sg), m/s
          9    2.341E-03                                 F               2         ED First time derivative of Platform horizontal sway translation DOF (internal DOF index = DOF_Sw), m/s
         10    1.353E-03                                 F               2         ED First time derivative of Platform vertical heave translation DOF (internal DOF index = DOF_Hv), m/s
         11   -6.664E-05                                 F               2         ED First time derivative of Platform roll tilt rotation DOF (internal DOF index = DOF_R), rad/s
         12    2.290E-05                                 F               2         ED First time derivative of Platform pitch tilt rotation DOF (internal DOF index = DOF_P), rad/s
         13   -1.972E-05                                 F               2         ED First time derivative of Platform yaw rotation DOF (internal DOF index = DOF_Y), rad/s
         14    8.794E-01                                 F               2         ED First time derivative of Variable speed generator DOF (internal DOF index = DOF_GeAz), rad/s

Order of continuous state derivatives:
   Row/Column Operating Point                     Rotating Frame? Derivative Order Description
   ---------- ---------------                     --------------- ---------------- -----------
          1   -3.351E-03                                 F               2         First time derivative of ED Platform horizontal surge translation DOF (internal DOF index = DOF_Sg), m/s
          2    2.341E-03                                 F               2         First time derivative of ED Platform horizontal sway translation DOF (internal DOF index = DOF_Sw), m/s
          3    1.353E-03                                 F               2         First time derivative of ED Platform vertical heave translation DOF (internal DOF index = DOF_Hv), m/s
          4   -6.664E-05                                 F               2         First time derivative of ED Platform roll tilt rotation DOF (internal DOF index = DOF_R), rad/s
          5    2.290E-05                                 F               2         First time derivative of ED Platform pitch tilt rotation DOF (internal DOF index = DOF_P), rad/s
          6   -1.972E-05                                 F               2         First time derivative of ED Platform yaw rotation DOF (internal DOF index = DOF_Y), rad/s
          7    8.794E-01                                 F               2         First time derivative of ED Variable speed generator DOF (internal DOF index = DOF_GeAz), rad/s
          8   -2.563E-04                                 F               2         First time derivative of ED First time derivative of Platform horizontal surge translation DOF (internal DOF index = DOF_Sg), m/s/s
          9   -2.619E-04                                 F               2         First time derivative of ED First time derivative of Platform horizontal sway translation DOF (internal DOF index = DOF_Sw), m/s/s
         10    1.581E-03                                 F               2         First time derivative of ED First time derivative of Platform vertical heave translation DOF (internal DOF index = DOF_Hv), m/s/s
         11    7.746E-05                                 F               2         First time derivative of ED First time derivative of Platform roll tilt rotation DOF (internal DOF index = DOF_R), rad/s/s
         12    5.410E-06                                 F               2         First time derivative of ED First time derivative of Platform pitch tilt rotation DOF (internal DOF index = DOF_P), rad/s/s
         13   -1.999E-05                                 F               2         First time derivative of ED First time derivative of Platform yaw rotation DOF (internal DOF index = DOF_Y), rad/s/s
         14   -9.373E-05                                 F               2         First time derivative of ED First time derivative of Variable speed generator DOF (internal DOF index = DOF_GeAz), rad/s/s

Order of inputs:
     Column   Operating Point                     Rotating Frame? Derivative Order Description
   ---------- ---------------                     --------------- ---------------- -----------
          1   -1.080E+01                                 F               0         IfW X-component position of node 1 (hub), m
          2    0.000E+00                                 F               0         IfW Y-component position of node 1 (hub), m
          3    1.497E+02                                 F               0         IfW Z-component position of node 1 (hub), m
          4    1.616E+01                                 F               0         IfW X-component position of node 2 (blade 1, node 1), m
          5   -1.092E+01                                 F               0         IfW Y-component position of node 2 (blade 1, node 1), m
          6    1.531E+02                                 F               0         IfW Z-component position of node 2 (blade 1, node 1), m
          7    1.636E+01                                 F               0         IfW X-component position of node 3 (blade 1, node 2), m
          8   -1.195E+01                                 F               0         IfW Y-component position of node 3 (blade 1, node 2), m
          9    1.540E+02                                 F               0         IfW Z-component position of node 3 (blade 1, node 2), m
         10    1.909E+01                                 F               0         IfW X-component position of node 4 (blade 1, node 3), m
         11   -2.587E+01                                 F               0         IfW Y-component position of node 4 (blade 1, node 3), m
         12    1.653E+02                                 F               0         IfW Z-component position of node 4 (blade 1, node 3), m
         13    1.967E+01                                 F               0         IfW X-component position of node 5 (blade 1, node 4), m
         14   -2.883E+01                                 F               0         IfW Y-component position of node 5 (blade 1, node 4), m
         15    1.677E+02                                 F               0         IfW Z-component position of node 5 (blade 1, node 4), m
         16    2.025E+01                                 F               0         IfW X-component position of node 6 (blade 1, node 5), m
         17   -3.180E+01                                 F               0         IfW Y-component position of node 6 (blade 1, node 5), m
         18    1.701E+02                                 F               0         IfW Z-component position of node 6 (blade 1, node 5), m
         19    2.083E+01                                 F               0         IfW X-component position of node 7 (blade 1, node 6), m
         20   -3.477E+01                                 F               0         IfW Y-component position of node 7 (blade 1, node 6), m
         21    1.725E+02                                 F               0         IfW Z-component position of node 7 (blade 1, node 6), m
         22    2.142E+01                                 F               0         IfW X-component position of node 8 (blade 1, node 7), m
         23   -3.773E+01                                 F               0         IfW Y-component position of node 8 (blade 1, node 7), m
         24    1.750E+02                                 F               0         IfW Z-component position of node 8 (blade 1, node 7), m
         25    2.200E+01                                 F               0         IfW X-component position of node 9 (blade 1, node 8), m
         26   -4.070E+01                                 F               0         IfW Y-component position of node 9 (blade 1, node 8), m
         27    1.774E+02                                 F               0         IfW Z-component position of node 9 (blade 1, node 8), m
         28    2.258E+01                                 F               0         IfW X-component position of node 10 (blade 1, node 9), m
         29   -4.366E+01                                 F               0         IfW Y-component position of node 10 (blade 1, node 9), m
         30    1.798E+02                                 F               0         IfW Z-component position of node 10 (blade 1, node 9), m
         31    2.316E+01                                 F               0         IfW X-component position of node 11 (blade 1, node 10), m
         32   -4.663E+01                                 F               0         IfW Y-component position of node 11 (blade 1, node 10), m
         33    1.822E+02                                 F               0         IfW Z-component position of node 11 (blade 1, node 10), m
         34    2.374E+01                                 F               0         IfW X-component position of node 12 (blade 1, node 11), m
         35   -4.960E+01                                 F               0         IfW Y-component position of node 12 (blade 1, node 11), m
         36    1.846E+02                                 F               0         IfW Z-component position of node 12 (blade 1, node 11), m
         37    2.432E+01                                 F               0         IfW X-component position of node 13 (blade 1, node 12), m
         38   -5.256E+01                                 F               0         IfW Y-component position of node 13 (blade 1, node 12), m
         39    1.870E+02                                 F               0         IfW Z-component position of node 13 (blade 1, node 12), m
         40    2.490E+01                                 F               0         IfW X-component position of node 14 (blade 1, node 13), m
         41   -5.553E+01                                 F               0         IfW Y-component position of node 14 (blade 1, node 13), m
         42    1.894E+02                                 F               0         IfW Z-component position of node 14 (blade 1, node 13), m
         43    2.548E+01                                 F               0         IfW X-component position of node 15 (blade 1, node 14), m
         44   -5.849E+01                                 F               0         IfW Y-component position of node 15 (blade 1, node 14), m
         45    1.918E+02                                 F               0         IfW Z-component position of node 15 (blade 1, node 14), m
         46    2.606E+01                                 F               0         IfW X-component position of node 16 (blade 1, node 15), m
         47   -6.146E+01                                 F               0         IfW Y-component position of node 16 (blade 1, node 15), m
         48    1.943E+02                                 F               0         IfW Z-component position of node 16 (blade 1, node 15), m
         49    2.665E+01                                 F               0         IfW X-component position of node 17 (blade 1, node 16), m
         50   -6.443E+01                                 F               0         IfW Y-component position of node 17 (blade 1, node 16), m
         51    1.967E+02                                 F               0         IfW Z-component position of node 17 (blade 1, node 16), m
         52    2.723E+01                                 F               0         IfW X-component position of node 18 (blade 1, node 17), m
         53   -6.739E+01                                 F               0         IfW Y-component position of node 18 (blade 1, node 17), m
         54    1.991E+02                                 F               0         IfW Z-component position of node 18 (blade 1, node 17), m
         55    2.781E+01                                 F               0         IfW X-component position of node 19 (blade 1, node 18), m
         56   -7.036E+01                                 F               0         IfW Y-component position of node 19 (blade 1, node 18), m
         57    2.015E+02                                 F               0         IfW Z-component position of node 19 (blade 1, node 18), m
         58    2.839E+01                                 F               0         IfW X-component position of node 20 (blade 1, node 19), m
         59   -7.332E+01                                 F               0         IfW Y-component position of node 20 (blade 1, node 19), m
         60    2.039E+02                                 F               0         IfW Z-component position of node 20 (blade 1, node 19), m
         61    2.897E+01                                 F               0         IfW X-component position of node 21 (blade 1, node 20), m
         62   -7.629E+01                                 F               0         IfW Y-component position of node 21 (blade 1, node 20), m
         63    2.063E+02                                 F               0         IfW Z-component position of node 21 (blade 1, node 20), m
         64    2.955E+01                                 F               0         IfW X-component position of node 22 (blade 1, node 21), m
         65   -7.926E+01                                 F               0         IfW Y-component position of node 22 (blade 1, node 21), m
         66    2.087E+02                                 F               0         IfW Z-component position of node 22 (blade 1, node 21), m
         67    3.013E+01                                 F               0         IfW X-component position of node 23 (blade 1, node 22), m
         68   -8.222E+01                                 F               0         IfW Y-component position of node 23 (blade 1, node 22), m
         69    2.112E+02                                 F               0         IfW Z-component position of node 23 (blade 1, node 22), m
         70    3.071E+01                                 F               0         IfW X-component position of node 24 (blade 1, node 23), m
         71   -8.519E+01                                 F               0         IfW Y-component position of node 24 (blade 1, node 23), m
         72    2.136E+02                                 F               0         IfW Z-component position of node 24 (blade 1, node 23), m
         73    3.129E+01                                 F               0         IfW X-component position of node 25 (blade 1, node 24), m
         74   -8.815E+01                                 F               0         IfW Y-component position of node 25 (blade 1, node 24), m
         75    2.160E+02                                 F               0         IfW Z-component position of node 25 (blade 1, node 24), m
         76    3.187E+01                                 F               0         IfW X-component position of node 26 (blade 1, node 25), m
         77   -9.112E+01                                 F               0         IfW Y-component position of node 26 (blade 1, node 25), m
         78    2.184E+02                                 F               0         IfW Z-component position of node 26 (blade 1, node 25), m
         79    3.246E+01                                 F               0         IfW X-component position of node 27 (blade 1, node 26), m
         80   -9.409E+01                                 F               0         IfW Y-component position of node 27 (blade 1, node 26), m
         81    2.208E+02                                 F               0         IfW Z-component position of node 27 (blade 1, node 26), m
         82    3.304E+01                                 F               0         IfW X-component position of node 28 (blade 1, node 27), m
         83   -9.705E+01                                 F               0         IfW Y-component position of node 28 (blade 1, node 27), m
         84    2.232E+02                                 F               0         IfW Z-component position of node 28 (blade 1, node 27), m
         85    3.353E+01                                 F               0         IfW X-component position of node 29 (blade 1, node 28), m
         86   -9.957E+01                                 F               0         IfW Y-component position of node 29 (blade 1, node 28), m
         87    2.253E+02                                 F               0         IfW Z-component position of node 29 (blade 1, node 28), m
         88    1.416E+01                                 F               0         IfW X-component position of node 30 (blade 2, node 1), m
         89   -7.630E+00                                 F               0         IfW Y-component position of node 30 (blade 2, node 1), m
         90    1.444E+02                                 F               0         IfW Z-component position of node 30 (blade 2, node 1), m
         91    1.387E+01                                 F               0         IfW X-component position of node 31 (blade 2, node 2), m
         92   -7.860E+00                                 F               0         IfW Y-component position of node 31 (blade 2, node 2), m
         93    1.431E+02                                 F               0         IfW Z-component position of node 31 (blade 2, node 2), m
         94    1.003E+01                                 F               0         IfW X-component position of node 32 (blade 2, node 3), m
         95   -1.099E+01                                 F               0         IfW Y-component position of node 32 (blade 2, node 3), m
         96    1.256E+02                                 F               0         IfW Z-component position of node 32 (blade 2, node 3), m
         97    9.207E+00                                 F               0         IfW X-component position of node 33 (blade 2, node 4), m
         98   -1.165E+01                                 F               0         IfW Y-component position of node 33 (blade 2, node 4), m
         99    1.219E+02                                 F               0         IfW Z-component position of node 33 (blade 2, node 4), m
        100    8.388E+00                                 F               0         IfW X-component position of node 34 (blade 2, node 5), m
        101   -1.232E+01                                 F               0         IfW Y-component position of node 34 (blade 2, node 5), m
        102    1.182E+02                                 F               0         IfW Z-component position of node 34 (blade 2, node 5), m
        103    7.568E+00                                 F               0         IfW X-component position of node 35 (blade 2, node 6), m
        104   -1.299E+01                                 F               0         IfW Y-component position of node 35 (blade 2, node 6), m
        105    1.144E+02                                 F               0         IfW Z-component position of node 35 (blade 2, node 6), m
        106    6.748E+00                                 F               0         IfW X-component position of node 36 (blade 2, node 7), m
        107   -1.365E+01                                 F               0         IfW Y-component position of node 36 (blade 2, node 7), m
        108    1.107E+02                                 F               0         IfW Z-component position of node 36 (blade 2, node 7), m
        109    5.929E+00                                 F               0         IfW X-component position of node 37 (blade 2, node 8), m
        110   -1.432E+01                                 F               0         IfW Y-component position of node 37 (blade 2, node 8), m
        111    1.070E+02                                 F               0         IfW Z-component position of node 37 (blade 2, node 8), m
        112    5.109E+00                                 F               0         IfW X-component position of node 38 (blade 2, node 9), m
        113   -1.498E+01                                 F               0         IfW Y-component position of node 38 (blade 2, node 9), m
        114    1.033E+02                                 F               0         IfW Z-component position of node 38 (blade 2, node 9), m
        115    4.289E+00                                 F               0         IfW X-component position of node 39 (blade 2, node 10), m
        116   -1.565E+01                                 F               0         IfW Y-component position of node 39 (blade 2, node 10), m
        117    9.956E+01                                 F               0         IfW Z-component position of node 39 (blade 2, node 10), m
        118    3.470E+00                                 F               0         IfW X-component position of node 40 (blade 2, node 11), m
        119   -1.632E+01                                 F               0         IfW Y-component position of node 40 (blade 2, node 11), m
        120    9.584E+01                                 F               0         IfW Z-component position of node 40 (blade 2, node 11), m
        121    2.650E+00                                 F               0         IfW X-component position of node 41 (blade 2, node 12), m
        122   -1.698E+01                                 F               0         IfW Y-component position of node 41 (blade 2, node 12), m
        123    9.212E+01                                 F               0         IfW Z-component position of node 41 (blade 2, node 12), m
        124    1.831E+00                                 F               0         IfW X-component position of node 42 (blade 2, node 13), m
        125   -1.765E+01                                 F               0         IfW Y-component position of node 42 (blade 2, node 13), m
        126    8.840E+01                                 F               0         IfW Z-component position of node 42 (blade 2, node 13), m
        127    1.011E+00                                 F               0         IfW X-component position of node 43 (blade 2, node 14), m
        128   -1.832E+01                                 F               0         IfW Y-component position of node 43 (blade 2, node 14), m
        129    8.468E+01                                 F               0         IfW Z-component position of node 43 (blade 2, node 14), m
        130    1.912E-01                                 F               0         IfW X-component position of node 44 (blade 2, node 15), m
        131   -1.898E+01                                 F               0         IfW Y-component position of node 44 (blade 2, node 15), m
        132    8.096E+01                                 F               0         IfW Z-component position of node 44 (blade 2, node 15), m
        133   -6.284E-01                                 F               0         IfW X-component position of node 45 (blade 2, node 16), m
        134   -1.965E+01                                 F               0         IfW Y-component position of node 45 (blade 2, node 16), m
        135    7.724E+01                                 F               0         IfW Z-component position of node 45 (blade 2, node 16), m
        136   -1.448E+00                                 F               0         IfW X-component position of node 46 (blade 2, node 17), m
        137   -2.031E+01                                 F               0         IfW Y-component position of node 46 (blade 2, node 17), m
        138    7.352E+01                                 F               0         IfW Z-component position of node 46 (blade 2, node 17), m
        139   -2.268E+00                                 F               0         IfW X-component position of node 47 (blade 2, node 18), m
        140   -2.098E+01                                 F               0         IfW Y-component position of node 47 (blade 2, node 18), m
        141    6.980E+01                                 F               0         IfW Z-component position of node 47 (blade 2, node 18), m
        142   -3.087E+00                                 F               0         IfW X-component position of node 48 (blade 2, node 19), m
        143   -2.165E+01                                 F               0         IfW Y-component position of node 48 (blade 2, node 19), m
        144    6.608E+01                                 F               0         IfW Z-component position of node 48 (blade 2, node 19), m
        145   -3.907E+00                                 F               0         IfW X-component position of node 49 (blade 2, node 20), m
        146   -2.231E+01                                 F               0         IfW Y-component position of node 49 (blade 2, node 20), m
        147    6.236E+01                                 F               0         IfW Z-component position of node 49 (blade 2, node 20), m
        148   -4.727E+00                                 F               0         IfW X-component position of node 50 (blade 2, node 21), m
        149   -2.298E+01                                 F               0         IfW Y-component position of node 50 (blade 2, node 21), m
        150    5.864E+01                                 F               0         IfW Z-component position of node 50 (blade 2, node 21), m
        151   -5.546E+00                                 F               0         IfW X-component position of node 51 (blade 2, node 22), m
        152   -2.364E+01                                 F               0         IfW Y-component position of node 51 (blade 2, node 22), m
        153    5.492E+01                                 F               0         IfW Z-component position of node 51 (blade 2, node 22), m
        154   -6.366E+00                                 F               0         IfW X-component position of node 52 (blade 2, node 23), m
        155   -2.431E+01                                 F               0         IfW Y-component position of node 52 (blade 2, node 23), m
        156    5.120E+01                                 F               0         IfW Z-component position of node 52 (blade 2, node 23), m
        157   -7.185E+00                                 F               0         IfW X-component position of node 53 (blade 2, node 24), m
        158   -2.498E+01                                 F               0         IfW Y-component position of node 53 (blade 2, node 24), m
        159    4.747E+01                                 F               0         IfW Z-component position of node 53 (blade 2, node 24), m
        160   -8.005E+00                                 F               0         IfW X-component position of node 54 (blade 2, node 25), m
        161   -2.564E+01                                 F               0         IfW Y-component position of node 54 (blade 2, node 25), m
        162    4.375E+01                                 F               0         IfW Z-component position of node 54 (blade 2, node 25), m
        163   -8.825E+00                                 F               0         IfW X-component position of node 55 (blade 2, node 26), m
        164   -2.631E+01                                 F               0         IfW Y-component position of node 55 (blade 2, node 26), m
        165    4.003E+01                                 F               0         IfW Z-component position of node 55 (blade 2, node 26), m