
Linearized model: Predictions were generated on 30-Jan-2024 at 18:20:32 using OpenFAST, compiled as a 64-bit application using single precision at commit v3.5.1
 linked with  NWTC Subroutine Library; ElastoDyn; InflowWind; AeroDyn; ServoDyn; HydroDyn; MAP++ (<1.20.10>, <Oct-20-2023>)

Description from the FAST input file: CCT-9 Campign 4 model. Input files to be run with OpenFAST 3.5.0. GitHub branch from Lu Wang (https://github.com/luwang00/openfast/tree/dev) compiled on March 7, 2023.

Simulation information:
   Simulation time:                   507.1750 s
   Rotor Speed:                         0.8794 rad/s
   Azimuth:                             5.1870 rad
   Wind Speed:                         10.0000 m/s
   Number of continuous states:         0
   Number of discrete states:           0
   Number of constraint states:         0
   Number of inputs:                 1746
   Number of outputs:                   4
   Jacobians included in this file?    No

Order of inputs:
     Column   Operating Point                     Rotating Frame? Derivative Order Description
   ---------- ---------------                     --------------- ---------------- -----------
          1    1.097E+01                                 F               0         Tower X translation displacement, node 1, m
          2   -1.130E+00                                 F               0         Tower Y translation displacement, node 1, m
          3   -2.918E-01                                 F               0         Tower Z translation displacement, node 1, m
          4    1.238E+01                                 F               0         Tower X translation displacement, node 2, m
          5   -1.653E+00                                 F               0         Tower Y translation displacement, node 2, m
          6   -3.846E-01                                 F               0         Tower Z translation displacement, node 2, m
          7    1.380E+01                                 F               0         Tower X translation displacement, node 3, m
          8   -2.175E+00                                 F               0         Tower Y translation displacement, node 3, m
          9   -4.775E-01                                 F               0         Tower Z translation displacement, node 3, m
         10    1.522E+01                                 F               0         Tower X translation displacement, node 4, m
         11   -2.698E+00                                 F               0         Tower Y translation displacement, node 4, m
         12   -5.704E-01                                 F               0         Tower Z translation displacement, node 4, m
         13    1.664E+01                                 F               0         Tower X translation displacement, node 5, m
         14   -3.220E+00                                 F               0         Tower Y translation displacement, node 5, m
         15   -6.633E-01                                 F               0         Tower Z translation displacement, node 5, m
         16    1.806E+01                                 F               0         Tower X translation displacement, node 6, m
         17   -3.743E+00                                 F               0         Tower Y translation displacement, node 6, m
         18   -7.562E-01                                 F               0         Tower Z translation displacement, node 6, m
         19    1.948E+01                                 F               0         Tower X translation displacement, node 7, m
         20   -4.266E+00                                 F               0         Tower Y translation displacement, node 7, m
         21   -8.490E-01                                 F               0         Tower Z translation displacement, node 7, m
         22    2.090E+01                                 F               0         Tower X translation displacement, node 8, m
         23   -4.788E+00                                 F               0         Tower Y translation displacement, node 8, m
         24   -9.419E-01                                 F               0         Tower Z translation displacement, node 8, m
         25    2.232E+01                                 F               0         Tower X translation displacement, node 9, m
         26   -5.311E+00                                 F               0         Tower Y translation displacement, node 9, m
         27   -1.035E+00                                 F               0         Tower Z translation displacement, node 9, m
         28    2.374E+01                                 F               0         Tower X translation displacement, node 10, m
         29   -5.833E+00                                 F               0         Tower Y translation displacement, node 10, m
         30   -1.128E+00                                 F               0         Tower Z translation displacement, node 10, m
         31    2.516E+01                                 F               0         Tower X translation displacement, node 11, m
         32   -6.356E+00                                 F               0         Tower Y translation displacement, node 11, m
         33   -1.221E+00                                 F               0         Tower Z translation displacement, node 11, m
         34    9.934E-01,  9.699E-03, -1.145E-01         F               0         Tower X orientation angle, node 1, rad
         35   -4.782E-03,  9.991E-01,  4.313E-02         F               0         Tower Y orientation angle, node 1, rad
         36    1.148E-01, -4.229E-02,  9.925E-01         F               0         Tower Z orientation angle, node 1, rad
         37    9.934E-01,  9.699E-03, -1.145E-01         F               0         Tower X orientation angle, node 2, rad
         38   -4.782E-03,  9.991E-01,  4.313E-02         F               0         Tower Y orientation angle, node 2, rad
         39    1.148E-01, -4.229E-02,  9.925E-01         F               0         Tower Z orientation angle, node 2, rad
         40    9.934E-01,  9.699E-03, -1.145E-01         F               0         Tower X orientation angle, node 3, rad
         41   -4.782E-03,  9.991E-01,  4.313E-02         F               0         Tower Y orientation angle, node 3, rad
         42    1.148E-01, -4.229E-02,  9.925E-01         F               0         Tower Z orientation angle, node 3, rad
         43    9.934E-01,  9.699E-03, -1.145E-01         F               0         Tower X orientation angle, node 4, rad
         44   -4.782E-03,  9.991E-01,  4.313E-02         F               0         Tower Y orientation angle, node 4, rad
         45    1.148E-01, -4.229E-02,  9.925E-01         F               0         Tower Z orientation angle, node 4, rad
         46    9.934E-01,  9.699E-03, -1.145E-01         F               0         Tower X orientation angle, node 5, rad
         47   -4.782E-03,  9.991E-01,  4.313E-02         F               0         Tower Y orientation angle, node 5, rad
         48    1.148E-01, -4.229E-02,  9.925E-01         F               0         Tower Z orientation angle, node 5, rad
         49    9.934E-01,  9.699E-03, -1.145E-01         F               0         Tower X orientation angle, node 6, rad
         50   -4.782E-03,  9.991E-01,  4.313E-02         F               0         Tower Y orientation angle, node 6, rad
         51    1.148E-01, -4.229E-02,  9.925E-01         F               0         Tower Z orientation angle, node 6, rad
         52    9.934E-01,  9.699E-03, -1.145E-01         F               0         Tower X orientation angle, node 7, rad
         53   -4.782E-03,  9.991E-01,  4.313E-02         F               0         Tower Y orientation angle, node 7, rad
         54    1.148E-01, -4.229E-02,  9.925E-01         F               0         Tower Z orientation angle, node 7, rad
         55    9.934E-01,  9.699E-03, -1.145E-01         F               0         Tower X orientation angle, node 8, rad
         56   -4.782E-03,  9.991E-01,  4.313E-02         F               0         Tower Y orientation angle, node 8, rad
         57    1.148E-01, -4.229E-02,  9.925E-01         F               0         Tower Z orientation angle, node 8, rad
         58    9.934E-01,  9.699E-03, -1.145E-01         F               0         Tower X orientation angle, node 9, rad
         59   -4.782E-03,  9.991E-01,  4.313E-02         F               0         Tower Y orientation angle, node 9, rad
         60    1.148E-01, -4.229E-02,  9.925E-01         F               0         Tower Z orientation angle, node 9, rad
         61    9.934E-01,  9.699E-03, -1.145E-01         F               0         Tower X orientation angle, node 10, rad
         62   -4.782E-03,  9.991E-01,  4.313E-02         F               0         Tower Y orientation angle, node 10, rad
         63    1.148E-01, -4.229E-02,  9.925E-01         F               0         Tower Z orientation angle, node 10, rad
         64    9.934E-01,  9.699E-03, -1.145E-01         F               0         Tower X orientation angle, node 11, rad
         65   -4.782E-03,  9.991E-01,  4.313E-02         F               0         Tower Y orientation angle, node 11, rad
         66    1.148E-01, -4.229E-02,  9.925E-01         F               0         Tower Z orientation angle, node 11, rad
         67   -4.584E-03                                 F               0         Tower X translation velocity, node 1, m/s
         68   -6.723E-03                                 F               0         Tower Y translation velocity, node 1, m/s
         69    3.771E-03                                 F               0         Tower Z translation velocity, node 1, m/s
         70   -4.480E-03                                 F               0         Tower X translation velocity, node 2, m/s
         71   -1.107E-02                                 F               0         Tower Y translation velocity, node 2, m/s
         72    3.574E-03                                 F               0         Tower Z translation velocity, node 2, m/s
         73   -4.376E-03                                 F               0         Tower X translation velocity, node 3, m/s
         74   -1.541E-02                                 F               0         Tower Y translation velocity, node 3, m/s
         75    3.377E-03                                 F               0         Tower Z translation velocity, node 3, m/s
         76   -4.273E-03                                 F               0         Tower X translation velocity, node 4, m/s
         77   -1.976E-02                                 F               0         Tower Y translation velocity, node 4, m/s
         78    3.180E-03                                 F               0         Tower Z translation velocity, node 4, m/s
         79   -4.169E-03                                 F               0         Tower X translation velocity, node 5, m/s
         80   -2.410E-02                                 F               0         Tower Y translation velocity, node 5, m/s
         81    2.982E-03                                 F               0         Tower Z translation velocity, node 5, m/s
         82   -4.065E-03                                 F               0         Tower X translation velocity, node 6, m/s
         83   -2.844E-02                                 F               0         Tower Y translation velocity, node 6, m/s
         84    2.785E-03                                 F               0         Tower Z translation velocity, node 6, m/s
         85   -3.961E-03                                 F               0         Tower X translation velocity, node 7, m/s
         86   -3.279E-02                                 F               0         Tower Y translation velocity, node 7, m/s
         87    2.588E-03                                 F               0         Tower Z translation velocity, node 7, m/s
         88   -3.858E-03                                 F               0         Tower X translation velocity, node 8, m/s
         89   -3.713E-02                                 F               0         Tower Y translation velocity, node 8, m/s
         90    2.391E-03                                 F               0         Tower Z translation velocity, node 8, m/s
         91   -3.754E-03                                 F               0         Tower X translation velocity, node 9, m/s
         92   -4.148E-02                                 F               0         Tower Y translation velocity, node 9, m/s
         93    2.194E-03                                 F               0         Tower Z translation velocity, node 9, m/s
         94   -3.650E-03                                 F               0         Tower X translation velocity, node 10, m/s
         95   -4.582E-02                                 F               0         Tower Y translation velocity, node 10, m/s
         96    1.997E-03                                 F               0         Tower Z translation velocity, node 10, m/s
         97   -3.547E-03                                 F               0         Tower X translation velocity, node 11, m/s
         98   -5.017E-02                                 F               0         Tower Y translation velocity, node 11, m/s
         99    1.800E-03                                 F               0         Tower Z translation velocity, node 11, m/s
        100    2.613E+01                                 F               0         Hub X translation displacement, node 1, m
        101   -6.792E+00                                 F               0         Hub Y translation displacement, node 1, m
        102   -4.251E-02                                 F               0         Hub Z translation displacement, node 1, m
        103    9.759E-01,  1.407E-02, -2.177E-01         F               0         Hub X orientation angle, node 1, rad
        104   -1.961E-01,  4.931E-01, -8.476E-01         F               0         Hub Y orientation angle, node 1, rad
        105    9.540E-02,  8.699E-01,  4.840E-01         F               0         Hub Z orientation angle, node 1, rad
        106    8.585E-01                                 F               0         Hub X rotation velocity, node 1, rad/s
        107    1.238E-02                                 F               0         Hub Y rotation velocity, node 1, rad/s
        108   -1.915E-01                                 F               0         Hub Z rotation velocity, node 1, rad/s
        109    9.813E-01, -5.671E-04, -1.924E-01         F               0         Blade root 1 X orientation angle, node 1, rad
        110   -1.671E-01,  4.933E-01, -8.537E-01         F               0         Blade root 1 Y orientation angle, node 1, rad
        111    9.540E-02,  8.699E-01,  4.840E-01         F               0         Blade root 1 Z orientation angle, node 1, rad
        112    9.701E-01, -9.742E-04, -2.426E-01         F               0         Blade root 2 X orientation angle, node 1, rad
        113    2.096E-01,  5.070E-01,  8.361E-01         F               0         Blade root 2 Y orientation angle, node 1, rad
        114    1.222E-01, -8.620E-01,  4.921E-01         F               0         Blade root 2 Z orientation angle, node 1, rad
        115    9.750E-01,  4.372E-02, -2.177E-01         F               0         Blade root 3 X orientation angle, node 1, rad
        116    4.440E-02, -9.990E-01, -1.787E-03         F               0         Blade root 3 Y orientation angle, node 1, rad
        117   -2.176E-01, -7.923E-03, -9.760E-01         F               0         Blade root 3 Z orientation angle, node 1, rad
        118    2.608E+01                                 F               0         Blade 1 X translation displacement, node 1, m
        119   -1.973E+00                                 F               0         Blade 1 Y translation displacement, node 1, m
        120   -2.871E+00                                 F               0         Blade 1 Z translation displacement, node 1, m
        121    2.607E+01                                 F               0         Blade 1 X translation displacement, node 2, m
        122   -8.122E-01                                 F               0         Blade 1 Y translation displacement, node 2, m
        123   -3.553E+00                                 F               0         Blade 1 Z translation displacement, node 2, m
        124    2.590E+01                                 F               0         Blade 1 X translation displacement, node 3, m
        125    1.498E+01                                 F               0         Blade 1 Y translation displacement, node 3, m
        126   -1.282E+01                                 F               0         Blade 1 Z translation displacement, node 3, m
        127    2.586E+01                                 F               0         Blade 1 X translation displacement, node 4, m
        128    1.834E+01                                 F               0         Blade 1 Y translation displacement, node 4, m
        129   -1.480E+01                                 F               0         Blade 1 Z translation displacement, node 4, m
        130    2.583E+01                                 F               0         Blade 1 X translation displacement, node 5, m
        131    2.171E+01                                 F               0         Blade 1 Y translation displacement, node 5, m
        132   -1.677E+01                                 F               0         Blade 1 Z translation displacement, node 5, m
        133    2.579E+01                                 F               0         Blade 1 X translation displacement, node 6, m
        134    2.507E+01                                 F               0         Blade 1 Y translation displacement, node 6, m
        135   -1.874E+01                                 F               0         Blade 1 Z translation displacement, node 6, m
        136    2.576E+01                                 F               0         Blade 1 X translation displacement, node 7, m
        137    2.844E+01                                 F               0         Blade 1 Y translation displacement, node 7, m
        138   -2.072E+01                                 F               0         Blade 1 Z translation displacement, node 7, m
        139    2.572E+01                                 F               0         Blade 1 X translation displacement, node 8, m
        140    3.180E+01                                 F               0         Blade 1 Y translation displacement, node 8, m
        141   -2.269E+01                                 F               0         Blade 1 Z translation displacement, node 8, m
        142    2.569E+01                                 F               0         Blade 1 X translation displacement, node 9, m
        143    3.516E+01                                 F               0         Blade 1 Y translation displacement, node 9, m
        144   -2.467E+01                                 F               0         Blade 1 Z translation displacement, node 9, m
        145    2.565E+01                                 F               0         Blade 1 X translation displacement, node 10, m
        146    3.853E+01                                 F               0         Blade 1 Y translation displacement, node 10, m
        147   -2.664E+01                                 F               0         Blade 1 Z translation displacement, node 10, m
        148    2.562E+01                                 F               0         Blade 1 X translation displacement, node 11, m
        149    4.189E+01                                 F               0         Blade 1 Y translation displacement, node 11, m
        150   -2.862E+01                                 F               0         Blade 1 Z translation displacement, node 11, m
        151    2.558E+01                                 F               0         Blade 1 X translation displacement, node 12, m
        152    4.526E+01                                 F               0         Blade 1 Y translation displacement, node 12, m
        153   -3.059E+01                                 F               0         Blade 1 Z translation displacement, node 12, m
        154    2.555E+01                                 F               0         Blade 1 X translation displacement, node 13, m
        155    4.862E+01                                 F               0         Blade 1 Y translation displacement, node 13, m
        156   -3.257E+01                                 F               0         Blade 1 Z translation displacement, node 13, m
        157    2.551E+01                                 F               0         Blade 1 X translation displacement, node 14, m
        158    5.199E+01                                 F               0         Blade 1 Y translation displacement, node 14, m
        159   -3.454E+01                                 F               0         Blade 1 Z translation displacement, node 14, m
        160    2.548E+01                                 F               0         Blade 1 X translation displacement, node 15, m
        161    5.535E+01                                 F               0         Blade 1 Y translation displacement, node 15, m
        162   -3.652E+01                                 F               0         Blade 1 Z translation displacement, node 15, m
        163    2.544E+01                                 F               0         Blade 1 X translation displacement, node 16, m
        164    5.872E+01                                 F               0         Blade 1 Y translation displacement, node 16, m
        165   -3.849E+01                                 F               0         Blade 1 Z translation displacement, node 16, m
        166    2.541E+01                                 F               0         Blade 1 X translation displacement, node 17, m
        167    6.208E+01                                 F               0         Blade 1 Y translation displacement, node 17, m
        168   -4.047E+01                                 F               0         Blade 1 Z translation displacement, node 17, m
        169    2.537E+01                                 F               0         Blade 1 X translation displacement, node 18, m
        170    6.544E+01                                 F               0         Blade 1 Y translation displacement, node 18, m
        171   -4.244E+01                                 F               0         Blade 1 Z translation displacement, node 18, m
        172    2.533E+01                                 F               0         Blade 1 X translation displacement, node 19, m
        173    6.881E+01                                 F               0         Blade 1 Y translation displacement, node 19, m
        174   -4.442E+01                                 F               0         Blade 1 Z translation displacement, node 19, m
        175    2.530E+01                                 F               0         Blade 1 X translation displacement, node 20, m
        176    7.217E+01                                 F               0         Blade 1 Y translation displacement, node 20, m
        177   -4.639E+01                                 F               0         Blade 1 Z translation displacement, node 20, m
        178    2.526E+01                                 F               0         Blade 1 X translation displacement, node 21, m
        179    7.554E+01                                 F               0         Blade 1 Y translation displacement, node 21, m
        180   -4.836E+01                                 F               0         Blade 1 Z translation displacement, node 21, m
        181    2.523E+01                                 F               0         Blade 1 X translation displacement, node 22, m
        182    7.890E+01                                 F               0         Blade 1 Y translation displacement, node 22, m
        183   -5.034E+01                                 F               0         Blade 1 Z translation displacement, node 22, m
        184    2.519E+01                                 F               0         Blade 1 X translation displacement, node 23, m
        185    8.227E+01                                 F               0         Blade 1 Y translation displacement, node 23, m
        186   -5.231E+01                                 F               0         Blade 1 Z translation displacement, node 23, m
        187    2.516E+01                                 F               0         Blade 1 X translation displacement, node 24, m
        188    8.563E+01                                 F               0         Blade 1 Y translation displacement, node 24, m
        189   -5.429E+01                                 F               0         Blade 1 Z translation displacement, node 24, m
        190    2.512E+01                                 F               0         Blade 1 X translation displacement, node 25, m
        191    8.900E+01                                 F               0         Blade 1 Y translation displacement, node 25, m
        192   -5.626E+01                                 F               0         Blade 1 Z translation displacement, node 25, m
        193    2.509E+01                                 F               0         Blade 1 X translation displacement, node 26, m
        194    9.236E+01                                 F               0         Blade 1 Y translation displacement, node 26, m
        195   -5.824E+01                                 F               0         Blade 1 Z translation displacement, node 26, m
        196    2.505E+01                                 F               0         Blade 1 X translation displacement, node 27, m
        197    9.572E+01                                 F               0         Blade 1 Y translation displacement, node 27, m
        198   -6.021E+01                                 F               0         Blade 1 Z translation displacement, node 27, m
        199    2.502E+01                                 F               0         Blade 1 X translation displacement, node 28, m
        200    9.858E+01                                 F               0         Blade 1 Y translation displacement, node 28, m
        201   -6.189E+01                                 F               0         Blade 1 Z translation displacement, node 28, m
        202    9.495E-01, -2.254E-01,  2.180E-01         F               0         Blade 1 X orientation angle, node 1, rad
        203    2.988E-01,  4.387E-01, -8.475E-01         F               0         Blade 1 Y orientation angle, node 1, rad
        204    9.540E-02,  8.699E-01,  4.840E-01         F               0         Blade 1 Z orientation angle, node 1, rad
        205    9.495E-01, -2.254E-01,  2.180E-01         F               0         Blade 1 X orientation angle, node 2, rad
        206    2.988E-01,  4.387E-01, -8.475E-01         F               0         Blade 1 Y orientation angle, node 2, rad
        207    9.540E-02,  8.699E-01,  4.840E-01         F               0         Blade 1 Z orientation angle, node 2, rad
        208    9.933E-01, -1.150E-01,  1.097E-02         F               0         Blade 1 X orientation angle, node 3, rad
        209    6.521E-02,  4.797E-01, -8.750E-01         F               0         Blade 1 Y orientation angle, node 3, rad
        210    9.540E-02,  8.699E-01,  4.840E-01         F               0         Blade 1 Z orientation angle, node 3, rad
        211    9.952E-01, -9.468E-02, -2.599E-02         F               0         Blade 1 X orientation angle, node 4, rad
        212    2.322E-02,  4.841E-01, -8.747E-01         F               0         Blade 1 Y orientation angle, node 4, rad
        213    9.540E-02,  8.699E-01,  4.840E-01         F               0         Blade 1 Z orientation angle, node 4, rad
        214    9.954E-01, -7.858E-02, -5.497E-02         F               0         Blade 1 X orientation angle, node 5, rad
        215   -9.793E-03,  4.870E-01, -8.734E-01         F               0         Blade 1 Y orientation angle, node 5, rad
        216    9.540E-02,  8.699E-01,  4.840E-01         F               0         Blade 1 Z orientation angle, node 5, rad
        217    9.948E-01, -6.563E-02, -7.812E-02         F               0         Blade 1 X orientation angle, node 6, rad
        218   -3.619E-02,  4.889E-01, -8.716E-01         F               0         Blade 1 Y orientation angle, node 6, rad
        219    9.540E-02,  8.699E-01,  4.840E-01         F               0         Blade 1 Z orientation angle, node 6, rad
        220    9.938E-01, -5.495E-02, -9.712E-02         F               0         Blade 1 X orientation angle, node 7, rad
        221   -5.789E-02,  4.902E-01, -8.697E-01         F               0         Blade 1 Y orientation angle, node 7, rad
        222    9.540E-02,  8.699E-01,  4.840E-01         F               0         Blade 1 Z orientation angle, node 7, rad
        223    9.925E-01, -4.604E-02, -1.129E-01         F               0         Blade 1 X orientation angle, node 8, rad
        224   -7.591E-02,  4.911E-01, -8.678E-01         F               0         Blade 1 Y orientation angle, node 8, rad
        225    9.540E-02,  8.699E-01,  4.840E-01         F               0         Blade 1 Z orientation angle, node 8, rad
        226    9.913E-01, -3.849E-02, -1.262E-01         F               0         Blade 1 X orientation angle, node 9, rad
        227   -9.115E-02,  4.918E-01, -8.659E-01         F               0         Blade 1 Y orientation angle, node 9, rad