
Linearized model: Predictions were generated on 30-Jan-2024 at 18:20:32 using OpenFAST, compiled as a 64-bit application using single precision at commit v3.5.1
 linked with  NWTC Subroutine Library; ElastoDyn; InflowWind; AeroDyn; ServoDyn; HydroDyn; MAP++ (<1.20.10>, <Oct-20-2023>)

Description from the FAST input file: CCT-9 Campign 4 model. Input files to be run with OpenFAST 3.5.0. GitHub branch from Lu Wang (https://github.com/luwang00/openfast/tree/dev) compiled on March 7, 2023.

Simulation information:
   Simulation time:                   503.2250 s
   Rotor Speed:                         0.8794 rad/s
   Azimuth:                             1.7132 rad
   Wind Speed:                         10.0000 m/s
   Number of continuous states:         0
   Number of discrete states:           0
   Number of constraint states:         0
   Number of inputs:                  303
   Number of outputs:                   1
   Jacobians included in this file?    No

Order of inputs:
     Column   Operating Point                     Rotating Frame? Derivative Order Description
   ---------- ---------------                     --------------- ---------------- -----------
          1   -1.080E+01                                 F               0         X-component position of node 1 (hub), m
          2    0.000E+00                                 F               0         Y-component position of node 1 (hub), m
          3    1.497E+02                                 F               0         Z-component position of node 1 (hub), m
          4    1.519E+01                                 F               0         X-component position of node 2 (blade 1, node 1), m
          5   -1.212E+01                                 F               0         Y-component position of node 2 (blade 1, node 1), m
          6    1.487E+02                                 F               0         Z-component position of node 2 (blade 1, node 1), m
          7    1.515E+01                                 F               0         X-component position of node 3 (blade 1, node 2), m
          8   -1.343E+01                                 F               0         Y-component position of node 3 (blade 1, node 2), m
          9    1.484E+02                                 F               0         Z-component position of node 3 (blade 1, node 2), m
         10    1.468E+01                                 F               0         X-component position of node 4 (blade 1, node 3), m
         11   -3.128E+01                                 F               0         Y-component position of node 4 (blade 1, node 3), m
         12    1.452E+02                                 F               0         Z-component position of node 4 (blade 1, node 3), m
         13    1.458E+01                                 F               0         X-component position of node 5 (blade 1, node 4), m
         14   -3.508E+01                                 F               0         Y-component position of node 5 (blade 1, node 4), m
         15    1.445E+02                                 F               0         Z-component position of node 5 (blade 1, node 4), m
         16    1.448E+01                                 F               0         X-component position of node 6 (blade 1, node 5), m
         17   -3.889E+01                                 F               0         Y-component position of node 6 (blade 1, node 5), m
         18    1.438E+02                                 F               0         Z-component position of node 6 (blade 1, node 5), m
         19    1.438E+01                                 F               0         X-component position of node 7 (blade 1, node 6), m
         20   -4.269E+01                                 F               0         Y-component position of node 7 (blade 1, node 6), m
         21    1.431E+02                                 F               0         Z-component position of node 7 (blade 1, node 6), m
         22    1.428E+01                                 F               0         X-component position of node 8 (blade 1, node 7), m
         23   -4.649E+01                                 F               0         Y-component position of node 8 (blade 1, node 7), m
         24    1.424E+02                                 F               0         Z-component position of node 8 (blade 1, node 7), m
         25    1.418E+01                                 F               0         X-component position of node 9 (blade 1, node 8), m
         26   -5.029E+01                                 F               0         Y-component position of node 9 (blade 1, node 8), m
         27    1.417E+02                                 F               0         Z-component position of node 9 (blade 1, node 8), m
         28    1.408E+01                                 F               0         X-component position of node 10 (blade 1, node 9), m
         29   -5.410E+01                                 F               0         Y-component position of node 10 (blade 1, node 9), m
         30    1.410E+02                                 F               0         Z-component position of node 10 (blade 1, node 9), m
         31    1.398E+01                                 F               0         X-component position of node 11 (blade 1, node 10), m
         32   -5.790E+01                                 F               0         Y-component position of node 11 (blade 1, node 10), m
         33    1.403E+02                                 F               0         Z-component position of node 11 (blade 1, node 10), m
         34    1.388E+01                                 F               0         X-component position of node 12 (blade 1, node 11), m
         35   -6.170E+01                                 F               0         Y-component position of node 12 (blade 1, node 11), m
         36    1.396E+02                                 F               0         Z-component position of node 12 (blade 1, node 11), m
         37    1.378E+01                                 F               0         X-component position of node 13 (blade 1, node 12), m
         38   -6.551E+01                                 F               0         Y-component position of node 13 (blade 1, node 12), m
         39    1.389E+02                                 F               0         Z-component position of node 13 (blade 1, node 12), m
         40    1.368E+01                                 F               0         X-component position of node 14 (blade 1, node 13), m
         41   -6.931E+01                                 F               0         Y-component position of node 14 (blade 1, node 13), m
         42    1.382E+02                                 F               0         Z-component position of node 14 (blade 1, node 13), m
         43    1.358E+01                                 F               0         X-component position of node 15 (blade 1, node 14), m
         44   -7.311E+01                                 F               0         Y-component position of node 15 (blade 1, node 14), m
         45    1.375E+02                                 F               0         Z-component position of node 15 (blade 1, node 14), m
         46    1.348E+01                                 F               0         X-component position of node 16 (blade 1, node 15), m
         47   -7.692E+01                                 F               0         Y-component position of node 16 (blade 1, node 15), m
         48    1.368E+02                                 F               0         Z-component position of node 16 (blade 1, node 15), m
         49    1.338E+01                                 F               0         X-component position of node 17 (blade 1, node 16), m
         50   -8.072E+01                                 F               0         Y-component position of node 17 (blade 1, node 16), m
         51    1.361E+02                                 F               0         Z-component position of node 17 (blade 1, node 16), m
         52    1.328E+01                                 F               0         X-component position of node 18 (blade 1, node 17), m
         53   -8.452E+01                                 F               0         Y-component position of node 18 (blade 1, node 17), m
         54    1.354E+02                                 F               0         Z-component position of node 18 (blade 1, node 17), m
         55    1.318E+01                                 F               0         X-component position of node 19 (blade 1, node 18), m
         56   -8.832E+01                                 F               0         Y-component position of node 19 (blade 1, node 18), m
         57    1.347E+02                                 F               0         Z-component position of node 19 (blade 1, node 18), m
         58    1.308E+01                                 F               0         X-component position of node 20 (blade 1, node 19), m
         59   -9.213E+01                                 F               0         Y-component position of node 20 (blade 1, node 19), m
         60    1.340E+02                                 F               0         Z-component position of node 20 (blade 1, node 19), m
         61    1.298E+01                                 F               0         X-component position of node 21 (blade 1, node 20), m
         62   -9.593E+01                                 F               0         Y-component position of node 21 (blade 1, node 20), m
         63    1.333E+02                                 F               0         Z-component position of node 21 (blade 1, node 20), m
         64    1.288E+01                                 F               0         X-component position of node 22 (blade 1, node 21), m
         65   -9.973E+01                                 F               0         Y-component position of node 22 (blade 1, node 21), m
         66    1.326E+02                                 F               0         Z-component position of node 22 (blade 1, node 21), m
         67    1.278E+01                                 F               0         X-component position of node 23 (blade 1, node 22), m
         68   -1.035E+02                                 F               0         Y-component position of node 23 (blade 1, node 22), m
         69    1.319E+02                                 F               0         Z-component position of node 23 (blade 1, node 22), m
         70    1.268E+01                                 F               0         X-component position of node 24 (blade 1, node 23), m
         71   -1.073E+02                                 F               0         Y-component position of node 24 (blade 1, node 23), m
         72    1.312E+02                                 F               0         Z-component position of node 24 (blade 1, node 23), m
         73    1.258E+01                                 F               0         X-component position of node 25 (blade 1, node 24), m
         74   -1.111E+02                                 F               0         Y-component position of node 25 (blade 1, node 24), m
         75    1.305E+02                                 F               0         Z-component position of node 25 (blade 1, node 24), m
         76    1.248E+01                                 F               0         X-component position of node 26 (blade 1, node 25), m
         77   -1.149E+02                                 F               0         Y-component position of node 26 (blade 1, node 25), m
         78    1.298E+02                                 F               0         Z-component position of node 26 (blade 1, node 25), m
         79    1.238E+01                                 F               0         X-component position of node 27 (blade 1, node 26), m
         80   -1.187E+02                                 F               0         Y-component position of node 27 (blade 1, node 26), m
         81    1.291E+02                                 F               0         Z-component position of node 27 (blade 1, node 26), m
         82    1.228E+01                                 F               0         X-component position of node 28 (blade 1, node 27), m
         83   -1.226E+02                                 F               0         Y-component position of node 28 (blade 1, node 27), m
         84    1.284E+02                                 F               0         Z-component position of node 28 (blade 1, node 27), m
         85    1.219E+01                                 F               0         X-component position of node 29 (blade 1, node 28), m
         86   -1.258E+02                                 F               0         Y-component position of node 29 (blade 1, node 28), m
         87    1.278E+02                                 F               0         Z-component position of node 29 (blade 1, node 28), m
         88    1.436E+01                                 F               0         X-component position of node 30 (blade 2, node 1), m
         89   -3.075E+00                                 F               0         Y-component position of node 30 (blade 2, node 1), m
         90    1.456E+02                                 F               0         Z-component position of node 30 (blade 2, node 1), m
         91    1.413E+01                                 F               0         X-component position of node 31 (blade 2, node 2), m
         92   -2.209E+00                                 F               0         Y-component position of node 31 (blade 2, node 2), m
         93    1.446E+02                                 F               0         Z-component position of node 31 (blade 2, node 2), m
         94    1.096E+01                                 F               0         X-component position of node 32 (blade 2, node 3), m
         95    9.570E+00                                 F               0         Y-component position of node 32 (blade 2, node 3), m
         96    1.312E+02                                 F               0         Z-component position of node 32 (blade 2, node 3), m
         97    1.029E+01                                 F               0         X-component position of node 33 (blade 2, node 4), m
         98    1.208E+01                                 F               0         Y-component position of node 33 (blade 2, node 4), m
         99    1.283E+02                                 F               0         Z-component position of node 33 (blade 2, node 4), m
        100    9.613E+00                                 F               0         X-component position of node 34 (blade 2, node 5), m
        101    1.459E+01                                 F               0         Y-component position of node 34 (blade 2, node 5), m
        102    1.254E+02                                 F               0         Z-component position of node 34 (blade 2, node 5), m
        103    8.938E+00                                 F               0         X-component position of node 35 (blade 2, node 6), m
        104    1.710E+01                                 F               0         Y-component position of node 35 (blade 2, node 6), m
        105    1.226E+02                                 F               0         Z-component position of node 35 (blade 2, node 6), m
        106    8.263E+00                                 F               0         X-component position of node 36 (blade 2, node 7), m
        107    1.961E+01                                 F               0         Y-component position of node 36 (blade 2, node 7), m
        108    1.197E+02                                 F               0         Z-component position of node 36 (blade 2, node 7), m
        109    7.588E+00                                 F               0         X-component position of node 37 (blade 2, node 8), m
        110    2.212E+01                                 F               0         Y-component position of node 37 (blade 2, node 8), m
        111    1.168E+02                                 F               0         Z-component position of node 37 (blade 2, node 8), m
        112    6.913E+00                                 F               0         X-component position of node 38 (blade 2, node 9), m
        113    2.463E+01                                 F               0         Y-component position of node 38 (blade 2, node 9), m
        114    1.140E+02                                 F               0         Z-component position of node 38 (blade 2, node 9), m
        115    6.238E+00                                 F               0         X-component position of node 39 (blade 2, node 10), m
        116    2.714E+01                                 F               0         Y-component position of node 39 (blade 2, node 10), m
        117    1.111E+02                                 F               0         Z-component position of node 39 (blade 2, node 10), m
        118    5.563E+00                                 F               0         X-component position of node 40 (blade 2, node 11), m
        119    2.965E+01                                 F               0         Y-component position of node 40 (blade 2, node 11), m
        120    1.082E+02                                 F               0         Z-component position of node 40 (blade 2, node 11), m
        121    4.888E+00                                 F               0         X-component position of node 41 (blade 2, node 12), m
        122    3.216E+01                                 F               0         Y-component position of node 41 (blade 2, node 12), m
        123    1.054E+02                                 F               0         Z-component position of node 41 (blade 2, node 12), m
        124    4.213E+00                                 F               0         X-component position of node 42 (blade 2, node 13), m
        125    3.467E+01                                 F               0         Y-component position of node 42 (blade 2, node 13), m
        126    1.025E+02                                 F               0         Z-component position of node 42 (blade 2, node 13), m
        127    3.538E+00                                 F               0         X-component position of node 43 (blade 2, node 14), m
        128    3.718E+01                                 F               0         Y-component position of node 43 (blade 2, node 14), m
        129    9.964E+01                                 F               0         Z-component position of node 43 (blade 2, node 14), m
        130    2.863E+00                                 F               0         X-component position of node 44 (blade 2, node 15), m
        131    3.969E+01                                 F               0         Y-component position of node 44 (blade 2, node 15), m
        132    9.678E+01                                 F               0         Z-component position of node 44 (blade 2, node 15), m
        133    2.188E+00                                 F               0         X-component position of node 45 (blade 2, node 16), m
        134    4.220E+01                                 F               0         Y-component position of node 45 (blade 2, node 16), m
        135    9.391E+01                                 F               0         Z-component position of node 45 (blade 2, node 16), m
        136    1.513E+00                                 F               0         X-component position of node 46 (blade 2, node 17), m
        137    4.471E+01                                 F               0         Y-component position of node 46 (blade 2, node 17), m
        138    9.105E+01                                 F               0         Z-component position of node 46 (blade 2, node 17), m
        139    8.384E-01                                 F               0         X-component position of node 47 (blade 2, node 18), m
        140    4.722E+01                                 F               0         Y-component position of node 47 (blade 2, node 18), m
        141    8.819E+01                                 F               0         Z-component position of node 47 (blade 2, node 18), m
        142    1.633E-01                                 F               0         X-component position of node 48 (blade 2, node 19), m
        143    4.973E+01                                 F               0         Y-component position of node 48 (blade 2, node 19), m
        144    8.532E+01                                 F               0         Z-component position of node 48 (blade 2, node 19), m
        145   -5.116E-01                                 F               0         X-component position of node 49 (blade 2, node 20), m
        146    5.224E+01                                 F               0         Y-component position of node 49 (blade 2, node 20), m
        147    8.246E+01                                 F               0         Z-component position of node 49 (blade 2, node 20), m
        148   -1.187E+00                                 F               0         X-component position of node 50 (blade 2, node 21), m
        149    5.474E+01                                 F               0         Y-component position of node 50 (blade 2, node 21), m
        150    7.959E+01                                 F               0         Z-component position of node 50 (blade 2, node 21), m
        151   -1.862E+00                                 F               0         X-component position of node 51 (blade 2, node 22), m
        152    5.725E+01                                 F               0         Y-component position of node 51 (blade 2, node 22), m
        153    7.673E+01                                 F               0         Z-component position of node 51 (blade 2, node 22), m
        154   -2.537E+00                                 F               0         X-component position of node 52 (blade 2, node 23), m
        155    5.976E+01                                 F               0         Y-component position of node 52 (blade 2, node 23), m
        156    7.386E+01                                 F               0         Z-component position of node 52 (blade 2, node 23), m
        157   -3.212E+00                                 F               0         X-component position of node 53 (blade 2, node 24), m
        158    6.227E+01                                 F               0         Y-component position of node 53 (blade 2, node 24), m
        159    7.100E+01                                 F               0         Z-component position of node 53 (blade 2, node 24), m
        160   -3.886E+00                                 F               0         X-component position of node 54 (blade 2, node 25), m
        161    6.478E+01                                 F               0         Y-component position of node 54 (blade 2, node 25), m
        162    6.814E+01                                 F               0         Z-component position of node 54 (blade 2, node 25), m
        163   -4.562E+00                                 F               0         X-component position of node 55 (blade 2, node 26), m
        164    6.729E+01                                 F               0         Y-component position of node 55 (blade 2, node 26), m
        165    6.527E+01                                 F               0         Z-component position of node 55 (blade 2, node 26), m
        166   -5.237E+00                                 F               0         X-component position of node 56 (blade 2, node 27), m
        167    6.980E+01                                 F               0         Y-component position of node 56 (blade 2, node 27), m
        168    6.241E+01                                 F               0         Z-component position of node 56 (blade 2, node 27), m
        169   -5.809E+00                                 F               0         X-component position of node 57 (blade 2, node 28), m
        170    7.193E+01                                 F               0         Y-component position of node 57 (blade 2, node 28), m
        171    5.998E+01                                 F               0         Z-component position of node 57 (blade 2, node 28), m
        172    1.644E+01                                 F               0         X-component position of node 58 (blade 3, node 1), m
        173   -4.818E+00                                 F               0         Y-component position of node 58 (blade 3, node 1), m
        174    1.548E+02                                 F               0         Z-component position of node 58 (blade 3, node 1), m
        175    1.671E+01                                 F               0         X-component position of node 59 (blade 3, node 2), m
        176   -4.371E+00                                 F               0         Y-component position of node 59 (blade 3, node 2), m
        177    1.560E+02                                 F               0         Z-component position of node 59 (blade 3, node 2), m
        178    2.035E+01                                 F               0         X-component position of node 60 (blade 3, node 3), m
        179    1.699E+00                                 F               0         Y-component position of node 60 (blade 3, node 3), m
        180    1.727E+02                                 F               0         Z-component position of node 60 (blade 3, node 3), m
        181    2.112E+01                                 F               0         X-component position of node 61 (blade 3, node 4), m
        182    2.992E+00                                 F               0         Y-component position of node 61 (blade 3, node 4), m
        183    1.763E+02                                 F               0         Z-component position of node 61 (blade 3, node 4), m
        184    2.190E+01                                 F               0         X-component position of node 62 (blade 3, node 5), m
        185    4.285E+00                                 F               0         Y-component position of node 62 (blade 3, node 5), m
        186    1.799E+02                                 F               0         Z-component position of node 62 (blade 3, node 5), m
        187    2.267E+01                                 F               0         X-component position of node 63 (blade 3, node 6), m
        188    5.579E+00                                 F               0         Y-component position of node 63 (blade 3, node 6), m
        189    1.834E+02                                 F               0         Z-component position of node 63 (blade 3, node 6), m
        190    2.345E+01                                 F               0         X-component position of node 64 (blade 3, node 7), m
        191    6.872E+00                                 F               0         Y-component position of node 64 (blade 3, node 7), m
        192    1.870E+02                                 F               0         Z-component position of node 64 (blade 3, node 7), m
        193    2.422E+01                                 F               0         X-component position of node 65 (blade 3, node 8), m
        194    8.165E+00                                 F               0         Y-component position of node 65 (blade 3, node 8), m
        195    1.905E+02                                 F               0         Z-component position of node 65 (blade 3, node 8), m
        196    2.500E+01                                 F               0         X-component position of node 66 (blade 3, node 9), m
        197    9.458E+00                                 F               0         Y-component position of node 66 (blade 3, node 9), m
        198    1.941E+02                                 F               0         Z-component position of node 66 (blade 3, node 9), m
        199    2.577E+01                                 F               0         X-component position of node 67 (blade 3, node 10), m
        200    1.075E+01                                 F               0         Y-component position of node 67 (blade 3, node 10), m
        201    1.977E+02                                 F               0         Z-component position of node 67 (blade 3, node 10), m
        202    2.655E+01                                 F               0         X-component position of node 68 (blade 3, node 11), m
        203    1.204E+01                                 F               0         Y-component position of node 68 (blade 3, node 11), m
        204    2.012E+02                                 F               0         Z-component position of node 68 (blade 3, node 11), m
        205    2.732E+01                                 F               0         X-component position of node 69 (blade 3, node 12), m
        206    1.334E+01                                 F               0         Y-component position of node 69 (blade 3, node 12), m
        207    2.048E+02                                 F               0         Z-component position of node 69 (blade 3, node 12), m
        208    2.810E+01                                 F               0         X-component position of node 70 (blade 3, node 13), m
        209    1.463E+01                                 F               0         Y-component position of node 70 (blade 3, node 13), m
        210    2.084E+02                                 F               0         Z-component position of node 70 (blade 3, node 13), m
        211    2.887E+01                                 F               0         X-component position of node 71 (blade 3, node 14), m