
Linearized model: Predictions were generated on 12-Feb-2024 at 18:31:58 using OpenFAST, compiled as a 64-bit application using single precision at commit v3.5.1
 linked with  NWTC Subroutine Library; ElastoDyn; InflowWind; AeroDyn; ServoDyn; HydroDyn; MAP++ (<1.20.10>, <Oct-20-2023>)

Description from the FAST input file: CCT-9 Campign 4 model. Input files to be run with OpenFAST 3.5.0. GitHub branch from Lu Wang (https://github.com/luwang00/openfast/tree/dev) compiled on March 7, 2023.

Simulation information:
   Simulation time:                  1001.2500 s
   Rotor Speed:                         1.0460 rad/s
   Azimuth:                             0.9747 rad
   Wind Speed:                         12.0000 m/s
   Number of continuous states:        14
   Number of discrete states:           0
   Number of constraint states:         0
   Number of inputs:                 3988
   Number of outputs:                  42
   Jacobians included in this file?    No

Order of continuous states:
   Row/Column Operating Point                     Rotating Frame? Derivative Order Description
   ---------- ---------------                     --------------- ---------------- -----------
          1    1.242E+01                                 F               2         ED Platform horizontal surge translation DOF (internal DOF index = DOF_Sg), m
          2   -2.304E-01                                 F               2         ED Platform horizontal sway translation DOF (internal DOF index = DOF_Sw), m
          3   -2.495E-01                                 F               2         ED Platform vertical heave translation DOF (internal DOF index = DOF_Hv), m
          4    4.632E-02                                 F               2         ED Platform roll tilt rotation DOF (internal DOF index = DOF_R), rad
          5    1.525E-01                                 F               2         ED Platform pitch tilt rotation DOF (internal DOF index = DOF_P), rad
          6    1.129E-02                                 F               2         ED Platform yaw rotation DOF (internal DOF index = DOF_Y), rad
          7    5.687E+00                                 F               2         ED Variable speed generator DOF (internal DOF index = DOF_GeAz), rad
          8   -2.572E-04                                 F               2         ED First time derivative of Platform horizontal surge translation DOF (internal DOF index = DOF_Sg), m/s
          9    4.905E-04                                 F               2         ED First time derivative of Platform horizontal sway translation DOF (internal DOF index = DOF_Sw), m/s
         10   -1.484E-03                                 F               2         ED First time derivative of Platform vertical heave translation DOF (internal DOF index = DOF_Hv), m/s
         11    3.281E-04                                 F               2         ED First time derivative of Platform roll tilt rotation DOF (internal DOF index = DOF_R), rad/s
         12   -3.962E-05                                 F               2         ED First time derivative of Platform pitch tilt rotation DOF (internal DOF index = DOF_P), rad/s
         13   -6.533E-06                                 F               2         ED First time derivative of Platform yaw rotation DOF (internal DOF index = DOF_Y), rad/s
         14    1.046E+00                                 F               2         ED First time derivative of Variable speed generator DOF (internal DOF index = DOF_GeAz), rad/s

Order of continuous state derivatives:
   Row/Column Operating Point                     Rotating Frame? Derivative Order Description
   ---------- ---------------                     --------------- ---------------- -----------
          1   -2.572E-04                                 F               2         First time derivative of ED Platform horizontal surge translation DOF (internal DOF index = DOF_Sg), m/s
          2    4.905E-04                                 F               2         First time derivative of ED Platform horizontal sway translation DOF (internal DOF index = DOF_Sw), m/s
          3   -1.484E-03                                 F               2         First time derivative of ED Platform vertical heave translation DOF (internal DOF index = DOF_Hv), m/s
          4    3.281E-04                                 F               2         First time derivative of ED Platform roll tilt rotation DOF (internal DOF index = DOF_R), rad/s
          5   -3.962E-05                                 F               2         First time derivative of ED Platform pitch tilt rotation DOF (internal DOF index = DOF_P), rad/s
          6   -6.533E-06                                 F               2         First time derivative of ED Platform yaw rotation DOF (internal DOF index = DOF_Y), rad/s
          7    1.046E+00                                 F               2         First time derivative of ED Variable speed generator DOF (internal DOF index = DOF_GeAz), rad/s
          8    2.503E-04                                 F               2         First time derivative of ED First time derivative of Platform horizontal surge translation DOF (internal DOF index = DOF_Sg), m/s/s
          9    2.090E-04                                 F               2         First time derivative of ED First time derivative of Platform horizontal sway translation DOF (internal DOF index = DOF_Sw), m/s/s
         10    1.798E-03                                 F               2         First time derivative of ED First time derivative of Platform vertical heave translation DOF (internal DOF index = DOF_Hv), m/s/s
         11   -1.630E-04                                 F               2         First time derivative of ED First time derivative of Platform roll tilt rotation DOF (internal DOF index = DOF_R), rad/s/s
         12    4.361E-06                                 F               2         First time derivative of ED First time derivative of Platform pitch tilt rotation DOF (internal DOF index = DOF_P), rad/s/s
         13    4.967E-05                                 F               2         First time derivative of ED First time derivative of Platform yaw rotation DOF (internal DOF index = DOF_Y), rad/s/s
         14    2.107E-04                                 F               2         First time derivative of ED First time derivative of Variable speed generator DOF (internal DOF index = DOF_GeAz), rad/s/s

Order of inputs:
     Column   Operating Point                     Rotating Frame? Derivative Order Description
   ---------- ---------------                     --------------- ---------------- -----------
          1   -1.080E+01                                 F               0         IfW X-component position of node 1 (hub), m
          2    0.000E+00                                 F               0         IfW Y-component position of node 1 (hub), m
          3    1.497E+02                                 F               0         IfW Z-component position of node 1 (hub), m
          4    2.515E+01                                 F               0         IfW X-component position of node 2 (blade 1, node 1), m
          5   -1.183E+01                                 F               0         IfW Y-component position of node 2 (blade 1, node 1), m
          6    1.520E+02                                 F               0         IfW Z-component position of node 2 (blade 1, node 1), m
          7    2.535E+01                                 F               0         IfW X-component position of node 3 (blade 1, node 2), m
          8   -1.296E+01                                 F               0         IfW Y-component position of node 3 (blade 1, node 2), m
          9    1.527E+02                                 F               0         IfW Z-component position of node 3 (blade 1, node 2), m
         10    2.804E+01                                 F               0         IfW X-component position of node 4 (blade 1, node 3), m
         11   -2.840E+01                                 F               0         IfW Y-component position of node 4 (blade 1, node 3), m
         12    1.619E+02                                 F               0         IfW Z-component position of node 4 (blade 1, node 3), m
         13    2.862E+01                                 F               0         IfW X-component position of node 5 (blade 1, node 4), m
         14   -3.170E+01                                 F               0         IfW Y-component position of node 5 (blade 1, node 4), m
         15    1.638E+02                                 F               0         IfW Z-component position of node 5 (blade 1, node 4), m
         16    2.919E+01                                 F               0         IfW X-component position of node 6 (blade 1, node 5), m
         17   -3.499E+01                                 F               0         IfW Y-component position of node 6 (blade 1, node 5), m
         18    1.658E+02                                 F               0         IfW Z-component position of node 6 (blade 1, node 5), m
         19    2.977E+01                                 F               0         IfW X-component position of node 7 (blade 1, node 6), m
         20   -3.828E+01                                 F               0         IfW Y-component position of node 7 (blade 1, node 6), m
         21    1.677E+02                                 F               0         IfW Z-component position of node 7 (blade 1, node 6), m
         22    3.034E+01                                 F               0         IfW X-component position of node 8 (blade 1, node 7), m
         23   -4.157E+01                                 F               0         IfW Y-component position of node 8 (blade 1, node 7), m
         24    1.697E+02                                 F               0         IfW Z-component position of node 8 (blade 1, node 7), m
         25    3.092E+01                                 F               0         IfW X-component position of node 9 (blade 1, node 8), m
         26   -4.486E+01                                 F               0         IfW Y-component position of node 9 (blade 1, node 8), m
         27    1.716E+02                                 F               0         IfW Z-component position of node 9 (blade 1, node 8), m
         28    3.149E+01                                 F               0         IfW X-component position of node 10 (blade 1, node 9), m
         29   -4.815E+01                                 F               0         IfW Y-component position of node 10 (blade 1, node 9), m
         30    1.736E+02                                 F               0         IfW Z-component position of node 10 (blade 1, node 9), m
         31    3.207E+01                                 F               0         IfW X-component position of node 11 (blade 1, node 10), m
         32   -5.144E+01                                 F               0         IfW Y-component position of node 11 (blade 1, node 10), m
         33    1.755E+02                                 F               0         IfW Z-component position of node 11 (blade 1, node 10), m
         34    3.264E+01                                 F               0         IfW X-component position of node 12 (blade 1, node 11), m
         35   -5.473E+01                                 F               0         IfW Y-component position of node 12 (blade 1, node 11), m
         36    1.775E+02                                 F               0         IfW Z-component position of node 12 (blade 1, node 11), m
         37    3.322E+01                                 F               0         IfW X-component position of node 13 (blade 1, node 12), m
         38   -5.802E+01                                 F               0         IfW Y-component position of node 13 (blade 1, node 12), m
         39    1.794E+02                                 F               0         IfW Z-component position of node 13 (blade 1, node 12), m
         40    3.379E+01                                 F               0         IfW X-component position of node 14 (blade 1, node 13), m
         41   -6.131E+01                                 F               0         IfW Y-component position of node 14 (blade 1, node 13), m
         42    1.814E+02                                 F               0         IfW Z-component position of node 14 (blade 1, node 13), m
         43    3.436E+01                                 F               0         IfW X-component position of node 15 (blade 1, node 14), m
         44   -6.460E+01                                 F               0         IfW Y-component position of node 15 (blade 1, node 14), m
         45    1.833E+02                                 F               0         IfW Z-component position of node 15 (blade 1, node 14), m
         46    3.494E+01                                 F               0         IfW X-component position of node 16 (blade 1, node 15), m
         47   -6.789E+01                                 F               0         IfW Y-component position of node 16 (blade 1, node 15), m
         48    1.853E+02                                 F               0         IfW Z-component position of node 16 (blade 1, node 15), m
         49    3.551E+01                                 F               0         IfW X-component position of node 17 (blade 1, node 16), m
         50   -7.118E+01                                 F               0         IfW Y-component position of node 17 (blade 1, node 16), m
         51    1.872E+02                                 F               0         IfW Z-component position of node 17 (blade 1, node 16), m
         52    3.609E+01                                 F               0         IfW X-component position of node 18 (blade 1, node 17), m
         53   -7.447E+01                                 F               0         IfW Y-component position of node 18 (blade 1, node 17), m
         54    1.892E+02                                 F               0         IfW Z-component position of node 18 (blade 1, node 17), m
         55    3.666E+01                                 F               0         IfW X-component position of node 19 (blade 1, node 18), m
         56   -7.776E+01                                 F               0         IfW Y-component position of node 19 (blade 1, node 18), m
         57    1.911E+02                                 F               0         IfW Z-component position of node 19 (blade 1, node 18), m
         58    3.724E+01                                 F               0         IfW X-component position of node 20 (blade 1, node 19), m
         59   -8.106E+01                                 F               0         IfW Y-component position of node 20 (blade 1, node 19), m
         60    1.931E+02                                 F               0         IfW Z-component position of node 20 (blade 1, node 19), m
         61    3.781E+01                                 F               0         IfW X-component position of node 21 (blade 1, node 20), m
         62   -8.435E+01                                 F               0         IfW Y-component position of node 21 (blade 1, node 20), m
         63    1.950E+02                                 F               0         IfW Z-component position of node 21 (blade 1, node 20), m
         64    3.839E+01                                 F               0         IfW X-component position of node 22 (blade 1, node 21), m
         65   -8.764E+01                                 F               0         IfW Y-component position of node 22 (blade 1, node 21), m
         66    1.970E+02                                 F               0         IfW Z-component position of node 22 (blade 1, node 21), m
         67    3.896E+01                                 F               0         IfW X-component position of node 23 (blade 1, node 22), m
         68   -9.093E+01                                 F               0         IfW Y-component position of node 23 (blade 1, node 22), m
         69    1.989E+02                                 F               0         IfW Z-component position of node 23 (blade 1, node 22), m
         70    3.954E+01                                 F               0         IfW X-component position of node 24 (blade 1, node 23), m
         71   -9.422E+01                                 F               0         IfW Y-component position of node 24 (blade 1, node 23), m
         72    2.009E+02                                 F               0         IfW Z-component position of node 24 (blade 1, node 23), m
         73    4.011E+01                                 F               0         IfW X-component position of node 25 (blade 1, node 24), m
         74   -9.751E+01                                 F               0         IfW Y-component position of node 25 (blade 1, node 24), m
         75    2.028E+02                                 F               0         IfW Z-component position of node 25 (blade 1, node 24), m
         76    4.069E+01                                 F               0         IfW X-component position of node 26 (blade 1, node 25), m
         77   -1.008E+02                                 F               0         IfW Y-component position of node 26 (blade 1, node 25), m
         78    2.048E+02                                 F               0         IfW Z-component position of node 26 (blade 1, node 25), m
         79    4.126E+01                                 F               0         IfW X-component position of node 27 (blade 1, node 26), m
         80   -1.041E+02                                 F               0         IfW Y-component position of node 27 (blade 1, node 26), m
         81    2.067E+02                                 F               0         IfW Z-component position of node 27 (blade 1, node 26), m
         82    4.184E+01                                 F               0         IfW X-component position of node 28 (blade 1, node 27), m
         83   -1.074E+02                                 F               0         IfW Y-component position of node 28 (blade 1, node 27), m
         84    2.087E+02                                 F               0         IfW Z-component position of node 28 (blade 1, node 27), m
         85    4.232E+01                                 F               0         IfW X-component position of node 29 (blade 1, node 28), m
         86   -1.102E+02                                 F               0         IfW Y-component position of node 29 (blade 1, node 28), m
         87    2.103E+02                                 F               0         IfW Z-component position of node 29 (blade 1, node 28), m
         88    2.293E+01                                 F               0         IfW X-component position of node 30 (blade 2, node 1), m
         89   -7.274E+00                                 F               0         IfW Y-component position of node 30 (blade 2, node 1), m
         90    1.439E+02                                 F               0         IfW Z-component position of node 30 (blade 2, node 1), m
         91    2.259E+01                                 F               0         IfW X-component position of node 31 (blade 2, node 2), m
         92   -7.314E+00                                 F               0         IfW Y-component position of node 31 (blade 2, node 2), m
         93    1.426E+02                                 F               0         IfW Z-component position of node 31 (blade 2, node 2), m
         94    1.801E+01                                 F               0         IfW X-component position of node 32 (blade 2, node 3), m
         95   -7.847E+00                                 F               0         IfW Y-component position of node 32 (blade 2, node 3), m
         96    1.250E+02                                 F               0         IfW Z-component position of node 32 (blade 2, node 3), m
         97    1.704E+01                                 F               0         IfW X-component position of node 33 (blade 2, node 4), m
         98   -7.961E+00                                 F               0         IfW Y-component position of node 33 (blade 2, node 4), m
         99    1.213E+02                                 F               0         IfW Z-component position of node 33 (blade 2, node 4), m
        100    1.606E+01                                 F               0         IfW X-component position of node 34 (blade 2, node 5), m
        101   -8.074E+00                                 F               0         IfW Y-component position of node 34 (blade 2, node 5), m
        102    1.176E+02                                 F               0         IfW Z-component position of node 34 (blade 2, node 5), m
        103    1.509E+01                                 F               0         IfW X-component position of node 35 (blade 2, node 6), m
        104   -8.188E+00                                 F               0         IfW Y-component position of node 35 (blade 2, node 6), m
        105    1.138E+02                                 F               0         IfW Z-component position of node 35 (blade 2, node 6), m
        106    1.411E+01                                 F               0         IfW X-component position of node 36 (blade 2, node 7), m
        107   -8.302E+00                                 F               0         IfW Y-component position of node 36 (blade 2, node 7), m
        108    1.101E+02                                 F               0         IfW Z-component position of node 36 (blade 2, node 7), m
        109    1.314E+01                                 F               0         IfW X-component position of node 37 (blade 2, node 8), m
        110   -8.415E+00                                 F               0         IfW Y-component position of node 37 (blade 2, node 8), m
        111    1.063E+02                                 F               0         IfW Z-component position of node 37 (blade 2, node 8), m
        112    1.216E+01                                 F               0         IfW X-component position of node 38 (blade 2, node 9), m
        113   -8.529E+00                                 F               0         IfW Y-component position of node 38 (blade 2, node 9), m
        114    1.026E+02                                 F               0         IfW Z-component position of node 38 (blade 2, node 9), m
        115    1.119E+01                                 F               0         IfW X-component position of node 39 (blade 2, node 10), m
        116   -8.642E+00                                 F               0         IfW Y-component position of node 39 (blade 2, node 10), m
        117    9.885E+01                                 F               0         IfW Z-component position of node 39 (blade 2, node 10), m
        118    1.021E+01                                 F               0         IfW X-component position of node 40 (blade 2, node 11), m
        119   -8.756E+00                                 F               0         IfW Y-component position of node 40 (blade 2, node 11), m
        120    9.511E+01                                 F               0         IfW Z-component position of node 40 (blade 2, node 11), m
        121    9.239E+00                                 F               0         IfW X-component position of node 41 (blade 2, node 12), m
        122   -8.870E+00                                 F               0         IfW Y-component position of node 41 (blade 2, node 12), m
        123    9.137E+01                                 F               0         IfW Z-component position of node 41 (blade 2, node 12), m
        124    8.264E+00                                 F               0         IfW X-component position of node 42 (blade 2, node 13), m
        125   -8.983E+00                                 F               0         IfW Y-component position of node 42 (blade 2, node 13), m
        126    8.763E+01                                 F               0         IfW Z-component position of node 42 (blade 2, node 13), m
        127    7.289E+00                                 F               0         IfW X-component position of node 43 (blade 2, node 14), m
        128   -9.097E+00                                 F               0         IfW Y-component position of node 43 (blade 2, node 14), m
        129    8.389E+01                                 F               0         IfW Z-component position of node 43 (blade 2, node 14), m
        130    6.313E+00                                 F               0         IfW X-component position of node 44 (blade 2, node 15), m
        131   -9.211E+00                                 F               0         IfW Y-component position of node 44 (blade 2, node 15), m
        132    8.015E+01                                 F               0         IfW Z-component position of node 44 (blade 2, node 15), m
        133    5.338E+00                                 F               0         IfW X-component position of node 45 (blade 2, node 16), m
        134   -9.324E+00                                 F               0         IfW Y-component position of node 45 (blade 2, node 16), m
        135    7.641E+01                                 F               0         IfW Z-component position of node 45 (blade 2, node 16), m
        136    4.363E+00                                 F               0         IfW X-component position of node 46 (blade 2, node 17), m
        137   -9.438E+00                                 F               0         IfW Y-component position of node 46 (blade 2, node 17), m
        138    7.267E+01                                 F               0         IfW Z-component position of node 46 (blade 2, node 17), m
        139    3.388E+00                                 F               0         IfW X-component position of node 47 (blade 2, node 18), m
        140   -9.552E+00                                 F               0         IfW Y-component position of node 47 (blade 2, node 18), m
        141    6.893E+01                                 F               0         IfW Z-component position of node 47 (blade 2, node 18), m
        142    2.413E+00                                 F               0         IfW X-component position of node 48 (blade 2, node 19), m
        143   -9.665E+00                                 F               0         IfW Y-component position of node 48 (blade 2, node 19), m
        144    6.518E+01                                 F               0         IfW Z-component position of node 48 (blade 2, node 19), m
        145    1.438E+00                                 F               0         IfW X-component position of node 49 (blade 2, node 20), m
        146   -9.779E+00                                 F               0         IfW Y-component position of node 49 (blade 2, node 20), m
        147    6.144E+01                                 F               0         IfW Z-component position of node 49 (blade 2, node 20), m
        148    4.631E-01                                 F               0         IfW X-component position of node 50 (blade 2, node 21), m
        149   -9.893E+00                                 F               0         IfW Y-component position of node 50 (blade 2, node 21), m
        150    5.770E+01                                 F               0         IfW Z-component position of node 50 (blade 2, node 21), m
        151   -5.120E-01                                 F               0         IfW X-component position of node 51 (blade 2, node 22), m
        152   -1.001E+01                                 F               0         IfW Y-component position of node 51 (blade 2, node 22), m
        153    5.396E+01                                 F               0         IfW Z-component position of node 51 (blade 2, node 22), m
        154   -1.487E+00                                 F               0         IfW X-component position of node 52 (blade 2, node 23), m
        155   -1.012E+01                                 F               0         IfW Y-component position of node 52 (blade 2, node 23), m
        156    5.022E+01                                 F               0         IfW Z-component position of node 52 (blade 2, node 23), m
        157   -2.462E+00                                 F               0         IfW X-component position of node 53 (blade 2, node 24), m
        158   -1.023E+01                                 F               0         IfW Y-component position of node 53 (blade 2, node 24), m
        159    4.648E+01                                 F               0         IfW Z-component position of node 53 (blade 2, node 24), m
        160   -3.437E+00                                 F               0         IfW X-component position of node 54 (blade 2, node 25), m
        161   -1.035E+01                                 F               0         IfW Y-component position of node 54 (blade 2, node 25), m
        162    4.274E+01                                 F               0         IfW Z-component position of node 54 (blade 2, node 25), m
        163   -4.412E+00                                 F               0         IfW X-component position of node 55 (blade 2, node 26), m
        164   -1.046E+01                                 F               0         IfW Y-component position of node 55 (blade 2, node 26), m
        165    3.900E+01                                 F               0         IfW Z-component position of node 55 (blade 2, node 26), m