
Linearized model: Predictions were generated on 12-Feb-2024 at 18:31:58 using OpenFAST, compiled as a 64-bit application using single precision at commit v3.5.1
 linked with  NWTC Subroutine Library; ElastoDyn; InflowWind; AeroDyn; ServoDyn; HydroDyn; MAP++ (<1.20.10>, <Oct-20-2023>)

Description from the FAST input file: CCT-9 Campign 4 model. Input files to be run with OpenFAST 3.5.0. GitHub branch from Lu Wang (https://github.com/luwang00/openfast/tree/dev) compiled on March 7, 2023.

Simulation information:
   Simulation time:                  1004.7250 s
   Rotor Speed:                         1.0469 rad/s
   Azimuth:                             4.6112 rad
   Wind Speed:                         12.0000 m/s
   Number of continuous states:         0
   Number of discrete states:           0
   Number of constraint states:         0
   Number of inputs:                 1746
   Number of outputs:                   4
   Jacobians included in this file?    No

Order of inputs:
     Column   Operating Point                     Rotating Frame? Derivative Order Description
   ---------- ---------------                     --------------- ---------------- -----------
          1    1.518E+01                                 F               0         Tower X translation displacement, node 1, m
          2   -1.058E+00                                 F               0         Tower Y translation displacement, node 1, m
          3   -4.733E-01                                 F               0         Tower Z translation displacement, node 1, m
          4    1.704E+01                                 F               0         Tower X translation displacement, node 2, m
          5   -1.616E+00                                 F               0         Tower Y translation displacement, node 2, m
          6   -6.272E-01                                 F               0         Tower Z translation displacement, node 2, m
          7    1.890E+01                                 F               0         Tower X translation displacement, node 3, m
          8   -2.173E+00                                 F               0         Tower Y translation displacement, node 3, m
          9   -7.810E-01                                 F               0         Tower Z translation displacement, node 3, m
         10    2.077E+01                                 F               0         Tower X translation displacement, node 4, m
         11   -2.731E+00                                 F               0         Tower Y translation displacement, node 4, m
         12   -9.349E-01                                 F               0         Tower Z translation displacement, node 4, m
         13    2.263E+01                                 F               0         Tower X translation displacement, node 5, m
         14   -3.289E+00                                 F               0         Tower Y translation displacement, node 5, m
         15   -1.089E+00                                 F               0         Tower Z translation displacement, node 5, m
         16    2.449E+01                                 F               0         Tower X translation displacement, node 6, m
         17   -3.846E+00                                 F               0         Tower Y translation displacement, node 6, m
         18   -1.243E+00                                 F               0         Tower Z translation displacement, node 6, m
         19    2.635E+01                                 F               0         Tower X translation displacement, node 7, m
         20   -4.404E+00                                 F               0         Tower Y translation displacement, node 7, m
         21   -1.396E+00                                 F               0         Tower Z translation displacement, node 7, m
         22    2.821E+01                                 F               0         Tower X translation displacement, node 8, m
         23   -4.962E+00                                 F               0         Tower Y translation displacement, node 8, m
         24   -1.550E+00                                 F               0         Tower Z translation displacement, node 8, m
         25    3.008E+01                                 F               0         Tower X translation displacement, node 9, m
         26   -5.520E+00                                 F               0         Tower Y translation displacement, node 9, m
         27   -1.704E+00                                 F               0         Tower Z translation displacement, node 9, m
         28    3.194E+01                                 F               0         Tower X translation displacement, node 10, m
         29   -6.077E+00                                 F               0         Tower Y translation displacement, node 10, m
         30   -1.858E+00                                 F               0         Tower Z translation displacement, node 10, m
         31    3.380E+01                                 F               0         Tower X translation displacement, node 11, m
         32   -6.635E+00                                 F               0         Tower Y translation displacement, node 11, m
         33   -2.012E+00                                 F               0         Tower Z translation displacement, node 11, m
         34    9.885E-01,  1.492E-02, -1.502E-01         F               0         Tower X orientation angle, node 1, rad
         35   -7.957E-03,  9.989E-01,  4.687E-02         F               0         Tower Y orientation angle, node 1, rad
         36    1.507E-01, -4.514E-02,  9.875E-01         F               0         Tower Z orientation angle, node 1, rad
         37    9.885E-01,  1.492E-02, -1.502E-01         F               0         Tower X orientation angle, node 2, rad
         38   -7.957E-03,  9.989E-01,  4.687E-02         F               0         Tower Y orientation angle, node 2, rad
         39    1.507E-01, -4.514E-02,  9.875E-01         F               0         Tower Z orientation angle, node 2, rad
         40    9.885E-01,  1.492E-02, -1.502E-01         F               0         Tower X orientation angle, node 3, rad
         41   -7.957E-03,  9.989E-01,  4.687E-02         F               0         Tower Y orientation angle, node 3, rad
         42    1.507E-01, -4.514E-02,  9.875E-01         F               0         Tower Z orientation angle, node 3, rad
         43    9.885E-01,  1.492E-02, -1.502E-01         F               0         Tower X orientation angle, node 4, rad
         44   -7.957E-03,  9.989E-01,  4.687E-02         F               0         Tower Y orientation angle, node 4, rad
         45    1.507E-01, -4.514E-02,  9.875E-01         F               0         Tower Z orientation angle, node 4, rad
         46    9.885E-01,  1.492E-02, -1.502E-01         F               0         Tower X orientation angle, node 5, rad
         47   -7.957E-03,  9.989E-01,  4.687E-02         F               0         Tower Y orientation angle, node 5, rad
         48    1.507E-01, -4.514E-02,  9.875E-01         F               0         Tower Z orientation angle, node 5, rad
         49    9.885E-01,  1.492E-02, -1.502E-01         F               0         Tower X orientation angle, node 6, rad
         50   -7.957E-03,  9.989E-01,  4.687E-02         F               0         Tower Y orientation angle, node 6, rad
         51    1.507E-01, -4.514E-02,  9.875E-01         F               0         Tower Z orientation angle, node 6, rad
         52    9.885E-01,  1.492E-02, -1.502E-01         F               0         Tower X orientation angle, node 7, rad
         53   -7.957E-03,  9.989E-01,  4.687E-02         F               0         Tower Y orientation angle, node 7, rad
         54    1.507E-01, -4.514E-02,  9.875E-01         F               0         Tower Z orientation angle, node 7, rad
         55    9.885E-01,  1.492E-02, -1.502E-01         F               0         Tower X orientation angle, node 8, rad
         56   -7.957E-03,  9.989E-01,  4.687E-02         F               0         Tower Y orientation angle, node 8, rad
         57    1.507E-01, -4.514E-02,  9.875E-01         F               0         Tower Z orientation angle, node 8, rad
         58    9.885E-01,  1.492E-02, -1.502E-01         F               0         Tower X orientation angle, node 9, rad
         59   -7.957E-03,  9.989E-01,  4.687E-02         F               0         Tower Y orientation angle, node 9, rad
         60    1.507E-01, -4.514E-02,  9.875E-01         F               0         Tower Z orientation angle, node 9, rad
         61    9.885E-01,  1.492E-02, -1.502E-01         F               0         Tower X orientation angle, node 10, rad
         62   -7.957E-03,  9.989E-01,  4.687E-02         F               0         Tower Y orientation angle, node 10, rad
         63    1.507E-01, -4.514E-02,  9.875E-01         F               0         Tower Z orientation angle, node 10, rad
         64    9.885E-01,  1.492E-02, -1.502E-01         F               0         Tower X orientation angle, node 11, rad
         65   -7.957E-03,  9.989E-01,  4.687E-02         F               0         Tower Y orientation angle, node 11, rad
         66    1.507E-01, -4.514E-02,  9.875E-01         F               0         Tower Z orientation angle, node 11, rad
         67   -4.277E-04                                 F               0         Tower X translation velocity, node 1, m/s
         68    3.702E-03                                 F               0         Tower Y translation velocity, node 1, m/s
         69    3.710E-03                                 F               0         Tower Z translation velocity, node 1, m/s
         70   -7.936E-04                                 F               0         Tower X translation velocity, node 2, m/s
         71    6.297E-03                                 F               0         Tower Y translation velocity, node 2, m/s
         72    3.884E-03                                 F               0         Tower Z translation velocity, node 2, m/s
         73   -1.160E-03                                 F               0         Tower X translation velocity, node 3, m/s
         74    8.892E-03                                 F               0         Tower Y translation velocity, node 3, m/s
         75    4.059E-03                                 F               0         Tower Z translation velocity, node 3, m/s
         76   -1.525E-03                                 F               0         Tower X translation velocity, node 4, m/s
         77    1.149E-02                                 F               0         Tower Y translation velocity, node 4, m/s
         78    4.233E-03                                 F               0         Tower Z translation velocity, node 4, m/s
         79   -1.891E-03                                 F               0         Tower X translation velocity, node 5, m/s
         80    1.408E-02                                 F               0         Tower Y translation velocity, node 5, m/s
         81    4.408E-03                                 F               0         Tower Z translation velocity, node 5, m/s
         82   -2.257E-03                                 F               0         Tower X translation velocity, node 6, m/s
         83    1.668E-02                                 F               0         Tower Y translation velocity, node 6, m/s
         84    4.582E-03                                 F               0         Tower Z translation velocity, node 6, m/s
         85   -2.623E-03                                 F               0         Tower X translation velocity, node 7, m/s
         86    1.927E-02                                 F               0         Tower Y translation velocity, node 7, m/s
         87    4.757E-03                                 F               0         Tower Z translation velocity, node 7, m/s
         88   -2.989E-03                                 F               0         Tower X translation velocity, node 8, m/s
         89    2.187E-02                                 F               0         Tower Y translation velocity, node 8, m/s
         90    4.931E-03                                 F               0         Tower Z translation velocity, node 8, m/s
         91   -3.355E-03                                 F               0         Tower X translation velocity, node 9, m/s
         92    2.446E-02                                 F               0         Tower Y translation velocity, node 9, m/s
         93    5.105E-03                                 F               0         Tower Z translation velocity, node 9, m/s
         94   -3.721E-03                                 F               0         Tower X translation velocity, node 10, m/s
         95    2.706E-02                                 F               0         Tower Y translation velocity, node 10, m/s
         96    5.280E-03                                 F               0         Tower Z translation velocity, node 10, m/s
         97   -4.087E-03                                 F               0         Tower X translation velocity, node 11, m/s
         98    2.965E-02                                 F               0         Tower Y translation velocity, node 11, m/s
         99    5.454E-03                                 F               0         Tower Z translation velocity, node 11, m/s
        100    3.511E+01                                 F               0         Hub X translation displacement, node 1, m
        101   -7.151E+00                                 F               0         Hub Y translation displacement, node 1, m
        102   -4.876E-01                                 F               0         Hub Z translation displacement, node 1, m
        103    9.674E-01,  1.956E-02, -2.526E-01         F               0         Hub X orientation angle, node 1, rad
        104   -2.511E-01, -5.777E-02, -9.662E-01         F               0         Hub Y orientation angle, node 1, rad
        105   -3.349E-02,  9.981E-01, -5.098E-02         F               0         Hub Z orientation angle, node 1, rad
        106    1.013E+00                                 F               0         Hub X rotation velocity, node 1, rad/s
        107    2.044E-02                                 F               0         Hub Y rotation velocity, node 1, rad/s
        108   -2.643E-01                                 F               0         Hub Z rotation velocity, node 1, rad/s
        109    9.744E-01,  2.126E-02, -2.238E-01         F               0         Blade root 1 X orientation angle, node 1, rad
        110   -2.223E-01, -5.717E-02, -9.733E-01         F               0         Blade root 1 Y orientation angle, node 1, rad
        111   -3.349E-02,  9.981E-01, -5.098E-02         F               0         Blade root 1 Z orientation angle, node 1, rad
        112    9.641E-01, -6.951E-03, -2.655E-01         F               0         Blade root 2 X orientation angle, node 1, rad
        113    1.252E-01,  8.935E-01,  4.313E-01         F               0         Blade root 2 Y orientation angle, node 1, rad
        114    2.342E-01, -4.490E-01,  8.623E-01         F               0         Blade root 2 Z orientation angle, node 1, rad
        115    9.624E-01,  4.434E-02, -2.681E-01         F               0         Blade root 3 X orientation angle, node 1, rad
        116    1.832E-01, -8.346E-01,  5.195E-01         F               0         Blade root 3 Y orientation angle, node 1, rad
        117   -2.007E-01, -5.491E-01, -8.113E-01         F               0         Blade root 3 Z orientation angle, node 1, rad
        118    3.434E+01                                 F               0         Blade 1 X translation displacement, node 1, m
        119   -1.621E+00                                 F               0         Blade 1 Y translation displacement, node 1, m
        120   -6.280E+00                                 F               0         Blade 1 Z translation displacement, node 1, m
        121    3.416E+01                                 F               0         Blade 1 X translation displacement, node 2, m
        122   -2.885E-01                                 F               0         Blade 1 Y translation displacement, node 2, m
        123   -7.675E+00                                 F               0         Blade 1 Z translation displacement, node 2, m
        124    3.165E+01                                 F               0         Blade 1 X translation displacement, node 3, m
        125    1.783E+01                                 F               0         Blade 1 Y translation displacement, node 3, m
        126   -2.665E+01                                 F               0         Blade 1 Z translation displacement, node 3, m
        127    3.112E+01                                 F               0         Blade 1 X translation displacement, node 4, m
        128    2.169E+01                                 F               0         Blade 1 Y translation displacement, node 4, m
        129   -3.070E+01                                 F               0         Blade 1 Z translation displacement, node 4, m
        130    3.059E+01                                 F               0         Blade 1 X translation displacement, node 5, m
        131    2.555E+01                                 F               0         Blade 1 Y translation displacement, node 5, m
        132   -3.474E+01                                 F               0         Blade 1 Z translation displacement, node 5, m
        133    3.005E+01                                 F               0         Blade 1 X translation displacement, node 6, m
        134    2.941E+01                                 F               0         Blade 1 Y translation displacement, node 6, m
        135   -3.878E+01                                 F               0         Blade 1 Z translation displacement, node 6, m
        136    2.952E+01                                 F               0         Blade 1 X translation displacement, node 7, m
        137    3.327E+01                                 F               0         Blade 1 Y translation displacement, node 7, m
        138   -4.283E+01                                 F               0         Blade 1 Z translation displacement, node 7, m
        139    2.898E+01                                 F               0         Blade 1 X translation displacement, node 8, m
        140    3.713E+01                                 F               0         Blade 1 Y translation displacement, node 8, m
        141   -4.687E+01                                 F               0         Blade 1 Z translation displacement, node 8, m
        142    2.845E+01                                 F               0         Blade 1 X translation displacement, node 9, m
        143    4.099E+01                                 F               0         Blade 1 Y translation displacement, node 9, m
        144   -5.092E+01                                 F               0         Blade 1 Z translation displacement, node 9, m
        145    2.792E+01                                 F               0         Blade 1 X translation displacement, node 10, m
        146    4.485E+01                                 F               0         Blade 1 Y translation displacement, node 10, m
        147   -5.496E+01                                 F               0         Blade 1 Z translation displacement, node 10, m
        148    2.738E+01                                 F               0         Blade 1 X translation displacement, node 11, m
        149    4.871E+01                                 F               0         Blade 1 Y translation displacement, node 11, m
        150   -5.900E+01                                 F               0         Blade 1 Z translation displacement, node 11, m
        151    2.685E+01                                 F               0         Blade 1 X translation displacement, node 12, m
        152    5.257E+01                                 F               0         Blade 1 Y translation displacement, node 12, m
        153   -6.305E+01                                 F               0         Blade 1 Z translation displacement, node 12, m
        154    2.632E+01                                 F               0         Blade 1 X translation displacement, node 13, m
        155    5.644E+01                                 F               0         Blade 1 Y translation displacement, node 13, m
        156   -6.709E+01                                 F               0         Blade 1 Z translation displacement, node 13, m
        157    2.578E+01                                 F               0         Blade 1 X translation displacement, node 14, m
        158    6.030E+01                                 F               0         Blade 1 Y translation displacement, node 14, m
        159   -7.113E+01                                 F               0         Blade 1 Z translation displacement, node 14, m
        160    2.525E+01                                 F               0         Blade 1 X translation displacement, node 15, m
        161    6.416E+01                                 F               0         Blade 1 Y translation displacement, node 15, m
        162   -7.518E+01                                 F               0         Blade 1 Z translation displacement, node 15, m
        163    2.471E+01                                 F               0         Blade 1 X translation displacement, node 16, m
        164    6.802E+01                                 F               0         Blade 1 Y translation displacement, node 16, m
        165   -7.922E+01                                 F               0         Blade 1 Z translation displacement, node 16, m
        166    2.418E+01                                 F               0         Blade 1 X translation displacement, node 17, m
        167    7.188E+01                                 F               0         Blade 1 Y translation displacement, node 17, m
        168   -8.327E+01                                 F               0         Blade 1 Z translation displacement, node 17, m
        169    2.365E+01                                 F               0         Blade 1 X translation displacement, node 18, m
        170    7.574E+01                                 F               0         Blade 1 Y translation displacement, node 18, m
        171   -8.731E+01                                 F               0         Blade 1 Z translation displacement, node 18, m
        172    2.311E+01                                 F               0         Blade 1 X translation displacement, node 19, m
        173    7.960E+01                                 F               0         Blade 1 Y translation displacement, node 19, m
        174   -9.135E+01                                 F               0         Blade 1 Z translation displacement, node 19, m
        175    2.258E+01                                 F               0         Blade 1 X translation displacement, node 20, m
        176    8.346E+01                                 F               0         Blade 1 Y translation displacement, node 20, m
        177   -9.540E+01                                 F               0         Blade 1 Z translation displacement, node 20, m
        178    2.204E+01                                 F               0         Blade 1 X translation displacement, node 21, m
        179    8.732E+01                                 F               0         Blade 1 Y translation displacement, node 21, m
        180   -9.944E+01                                 F               0         Blade 1 Z translation displacement, node 21, m
        181    2.151E+01                                 F               0         Blade 1 X translation displacement, node 22, m
        182    9.118E+01                                 F               0         Blade 1 Y translation displacement, node 22, m
        183   -1.035E+02                                 F               0         Blade 1 Z translation displacement, node 22, m
        184    2.098E+01                                 F               0         Blade 1 X translation displacement, node 23, m
        185    9.504E+01                                 F               0         Blade 1 Y translation displacement, node 23, m
        186   -1.075E+02                                 F               0         Blade 1 Z translation displacement, node 23, m
        187    2.044E+01                                 F               0         Blade 1 X translation displacement, node 24, m
        188    9.890E+01                                 F               0         Blade 1 Y translation displacement, node 24, m
        189   -1.116E+02                                 F               0         Blade 1 Z translation displacement, node 24, m
        190    1.991E+01                                 F               0         Blade 1 X translation displacement, node 25, m
        191    1.028E+02                                 F               0         Blade 1 Y translation displacement, node 25, m
        192   -1.156E+02                                 F               0         Blade 1 Z translation displacement, node 25, m
        193    1.938E+01                                 F               0         Blade 1 X translation displacement, node 26, m
        194    1.066E+02                                 F               0         Blade 1 Y translation displacement, node 26, m
        195   -1.197E+02                                 F               0         Blade 1 Z translation displacement, node 26, m
        196    1.884E+01                                 F               0         Blade 1 X translation displacement, node 27, m
        197    1.105E+02                                 F               0         Blade 1 Y translation displacement, node 27, m
        198   -1.237E+02                                 F               0         Blade 1 Z translation displacement, node 27, m
        199    1.839E+01                                 F               0         Blade 1 X translation displacement, node 28, m
        200    1.138E+02                                 F               0         Blade 1 Y translation displacement, node 28, m
        201   -1.271E+02                                 F               0         Blade 1 Z translation displacement, node 28, m
        202    9.686E-01,  4.499E-02,  2.446E-01         F               0         Blade 1 X orientation angle, node 1, rad
        203    2.465E-01, -4.118E-02, -9.683E-01         F               0         Blade 1 Y orientation angle, node 1, rad
        204   -3.349E-02,  9.981E-01, -5.098E-02         F               0         Blade 1 Z orientation angle, node 1, rad
        205    9.686E-01,  4.499E-02,  2.446E-01         F               0         Blade 1 X orientation angle, node 2, rad
        206    2.465E-01, -4.118E-02, -9.683E-01         F               0         Blade 1 Y orientation angle, node 2, rad
        207   -3.349E-02,  9.981E-01, -5.098E-02         F               0         Blade 1 Z orientation angle, node 2, rad
        208    9.994E-01,  3.395E-02,  8.191E-03         F               0         Blade 1 X orientation angle, node 3, rad
        209    9.906E-03, -5.067E-02, -9.987E-01         F               0         Blade 1 Y orientation angle, node 3, rad
        210   -3.349E-02,  9.981E-01, -5.098E-02         F               0         Blade 1 Z orientation angle, node 3, rad
        211    9.989E-01,  3.178E-02, -3.398E-02         F               0         Blade 1 X orientation angle, node 4, rad
        212   -3.230E-02, -5.206E-02, -9.981E-01         F               0         Blade 1 Y orientation angle, node 4, rad
        213   -3.349E-02,  9.981E-01, -5.098E-02         F               0         Blade 1 Z orientation angle, node 4, rad
        214    9.973E-01,  3.004E-02, -6.706E-02         F               0         Blade 1 X orientation angle, node 5, rad
        215   -6.540E-02, -5.308E-02, -9.964E-01         F               0         Blade 1 Y orientation angle, node 5, rad
        216   -3.349E-02,  9.981E-01, -5.098E-02         F               0         Blade 1 Z orientation angle, node 5, rad
        217    9.952E-01,  2.862E-02, -9.347E-02         F               0         Blade 1 X orientation angle, node 6, rad
        218   -9.183E-02, -5.386E-02, -9.943E-01         F               0         Blade 1 Y orientation angle, node 6, rad
        219   -3.349E-02,  9.981E-01, -5.098E-02         F               0         Blade 1 Z orientation angle, node 6, rad
        220    9.930E-01,  2.744E-02, -1.151E-01         F               0         Blade 1 X orientation angle, node 7, rad
        221   -1.135E-01, -5.447E-02, -9.920E-01         F               0         Blade 1 Y orientation angle, node 7, rad
        222   -3.349E-02,  9.981E-01, -5.098E-02         F               0         Blade 1 Z orientation angle, node 7, rad
        223    9.907E-01,  2.644E-02, -1.331E-01         F               0         Blade 1 X orientation angle, node 8, rad
        224   -1.315E-01, -5.496E-02, -9.898E-01         F               0         Blade 1 Y orientation angle, node 8, rad
        225   -3.349E-02,  9.981E-01, -5.098E-02         F               0         Blade 1 Z orientation angle, node 8, rad
        226    9.886E-01,  2.560E-02, -1.483E-01         F               0         Blade 1 X orientation angle, node 9, rad
        227   -1.467E-01, -5.536E-02, -9.876E-01         F               0         Blade 1 Y orientation angle, node 9, rad