
Linearized model: Predictions were generated on 12-Feb-2024 at 18:31:58 using OpenFAST, compiled as a 64-bit application using single precision at commit v3.5.1
 linked with  NWTC Subroutine Library; ElastoDyn; InflowWind; AeroDyn; ServoDyn; HydroDyn; MAP++ (<1.20.10>, <Oct-20-2023>)

Description from the FAST input file: CCT-9 Campign 4 model. Input files to be run with OpenFAST 3.5.0. GitHub branch from Lu Wang (https://github.com/luwang00/openfast/tree/dev) compiled on March 7, 2023.

Simulation information:
   Simulation time:                  1008.2000 s
   Rotor Speed:                         1.0473 rad/s
   Azimuth:                             1.9666 rad
   Wind Speed:                         12.0000 m/s
   Number of continuous states:         0
   Number of discrete states:           0
   Number of constraint states:         0
   Number of inputs:                  303
   Number of outputs:                   1
   Jacobians included in this file?    No

Order of inputs:
     Column   Operating Point                     Rotating Frame? Derivative Order Description
   ---------- ---------------                     --------------- ---------------- -----------
          1   -1.080E+01                                 F               0         X-component position of node 1 (hub), m
          2    0.000E+00                                 F               0         Y-component position of node 1 (hub), m
          3    1.497E+02                                 F               0         Z-component position of node 1 (hub), m
          4    2.380E+01                                 F               0         X-component position of node 2 (blade 1, node 1), m
          5   -1.191E+01                                 F               0         Y-component position of node 2 (blade 1, node 1), m
          6    1.470E+02                                 F               0         Z-component position of node 2 (blade 1, node 1), m
          7    2.368E+01                                 F               0         X-component position of node 3 (blade 1, node 2), m
          8   -1.312E+01                                 F               0         Y-component position of node 3 (blade 1, node 2), m
          9    1.464E+02                                 F               0         Z-component position of node 3 (blade 1, node 2), m
         10    2.206E+01                                 F               0         X-component position of node 4 (blade 1, node 3), m
         11   -2.956E+01                                 F               0         Y-component position of node 4 (blade 1, node 3), m
         12    1.389E+02                                 F               0         Z-component position of node 4 (blade 1, node 3), m
         13    2.171E+01                                 F               0         X-component position of node 5 (blade 1, node 4), m
         14   -3.306E+01                                 F               0         Y-component position of node 5 (blade 1, node 4), m
         15    1.373E+02                                 F               0         Z-component position of node 5 (blade 1, node 4), m
         16    2.137E+01                                 F               0         X-component position of node 6 (blade 1, node 5), m
         17   -3.657E+01                                 F               0         Y-component position of node 6 (blade 1, node 5), m
         18    1.357E+02                                 F               0         Z-component position of node 6 (blade 1, node 5), m
         19    2.102E+01                                 F               0         X-component position of node 7 (blade 1, node 6), m
         20   -4.007E+01                                 F               0         Y-component position of node 7 (blade 1, node 6), m
         21    1.341E+02                                 F               0         Z-component position of node 7 (blade 1, node 6), m
         22    2.067E+01                                 F               0         X-component position of node 8 (blade 1, node 7), m
         23   -4.357E+01                                 F               0         Y-component position of node 8 (blade 1, node 7), m
         24    1.325E+02                                 F               0         Z-component position of node 8 (blade 1, node 7), m
         25    2.033E+01                                 F               0         X-component position of node 9 (blade 1, node 8), m
         26   -4.708E+01                                 F               0         Y-component position of node 9 (blade 1, node 8), m
         27    1.309E+02                                 F               0         Z-component position of node 9 (blade 1, node 8), m
         28    1.998E+01                                 F               0         X-component position of node 10 (blade 1, node 9), m
         29   -5.058E+01                                 F               0         Y-component position of node 10 (blade 1, node 9), m
         30    1.293E+02                                 F               0         Z-component position of node 10 (blade 1, node 9), m
         31    1.964E+01                                 F               0         X-component position of node 11 (blade 1, node 10), m
         32   -5.408E+01                                 F               0         Y-component position of node 11 (blade 1, node 10), m
         33    1.277E+02                                 F               0         Z-component position of node 11 (blade 1, node 10), m
         34    1.929E+01                                 F               0         X-component position of node 12 (blade 1, node 11), m
         35   -5.758E+01                                 F               0         Y-component position of node 12 (blade 1, node 11), m
         36    1.261E+02                                 F               0         Z-component position of node 12 (blade 1, node 11), m
         37    1.894E+01                                 F               0         X-component position of node 13 (blade 1, node 12), m
         38   -6.109E+01                                 F               0         Y-component position of node 13 (blade 1, node 12), m
         39    1.245E+02                                 F               0         Z-component position of node 13 (blade 1, node 12), m
         40    1.860E+01                                 F               0         X-component position of node 14 (blade 1, node 13), m
         41   -6.459E+01                                 F               0         Y-component position of node 14 (blade 1, node 13), m
         42    1.229E+02                                 F               0         Z-component position of node 14 (blade 1, node 13), m
         43    1.825E+01                                 F               0         X-component position of node 15 (blade 1, node 14), m
         44   -6.809E+01                                 F               0         Y-component position of node 15 (blade 1, node 14), m
         45    1.213E+02                                 F               0         Z-component position of node 15 (blade 1, node 14), m
         46    1.791E+01                                 F               0         X-component position of node 16 (blade 1, node 15), m
         47   -7.160E+01                                 F               0         Y-component position of node 16 (blade 1, node 15), m
         48    1.197E+02                                 F               0         Z-component position of node 16 (blade 1, node 15), m
         49    1.756E+01                                 F               0         X-component position of node 17 (blade 1, node 16), m
         50   -7.510E+01                                 F               0         Y-component position of node 17 (blade 1, node 16), m
         51    1.181E+02                                 F               0         Z-component position of node 17 (blade 1, node 16), m
         52    1.721E+01                                 F               0         X-component position of node 18 (blade 1, node 17), m
         53   -7.860E+01                                 F               0         Y-component position of node 18 (blade 1, node 17), m
         54    1.165E+02                                 F               0         Z-component position of node 18 (blade 1, node 17), m
         55    1.687E+01                                 F               0         X-component position of node 19 (blade 1, node 18), m
         56   -8.210E+01                                 F               0         Y-component position of node 19 (blade 1, node 18), m
         57    1.149E+02                                 F               0         Z-component position of node 19 (blade 1, node 18), m
         58    1.652E+01                                 F               0         X-component position of node 20 (blade 1, node 19), m
         59   -8.561E+01                                 F               0         Y-component position of node 20 (blade 1, node 19), m
         60    1.133E+02                                 F               0         Z-component position of node 20 (blade 1, node 19), m
         61    1.618E+01                                 F               0         X-component position of node 21 (blade 1, node 20), m
         62   -8.911E+01                                 F               0         Y-component position of node 21 (blade 1, node 20), m
         63    1.117E+02                                 F               0         Z-component position of node 21 (blade 1, node 20), m
         64    1.583E+01                                 F               0         X-component position of node 22 (blade 1, node 21), m
         65   -9.261E+01                                 F               0         Y-component position of node 22 (blade 1, node 21), m
         66    1.101E+02                                 F               0         Z-component position of node 22 (blade 1, node 21), m
         67    1.548E+01                                 F               0         X-component position of node 23 (blade 1, node 22), m
         68   -9.612E+01                                 F               0         Y-component position of node 23 (blade 1, node 22), m
         69    1.085E+02                                 F               0         Z-component position of node 23 (blade 1, node 22), m
         70    1.514E+01                                 F               0         X-component position of node 24 (blade 1, node 23), m
         71   -9.962E+01                                 F               0         Y-component position of node 24 (blade 1, node 23), m
         72    1.069E+02                                 F               0         Z-component position of node 24 (blade 1, node 23), m
         73    1.479E+01                                 F               0         X-component position of node 25 (blade 1, node 24), m
         74   -1.031E+02                                 F               0         Y-component position of node 25 (blade 1, node 24), m
         75    1.052E+02                                 F               0         Z-component position of node 25 (blade 1, node 24), m
         76    1.445E+01                                 F               0         X-component position of node 26 (blade 1, node 25), m
         77   -1.066E+02                                 F               0         Y-component position of node 26 (blade 1, node 25), m
         78    1.036E+02                                 F               0         Z-component position of node 26 (blade 1, node 25), m
         79    1.410E+01                                 F               0         X-component position of node 27 (blade 1, node 26), m
         80   -1.101E+02                                 F               0         Y-component position of node 27 (blade 1, node 26), m
         81    1.020E+02                                 F               0         Z-component position of node 27 (blade 1, node 26), m
         82    1.375E+01                                 F               0         X-component position of node 28 (blade 1, node 27), m
         83   -1.136E+02                                 F               0         Y-component position of node 28 (blade 1, node 27), m
         84    1.004E+02                                 F               0         Z-component position of node 28 (blade 1, node 27), m
         85    1.346E+01                                 F               0         X-component position of node 29 (blade 1, node 28), m
         86   -1.166E+02                                 F               0         Y-component position of node 29 (blade 1, node 28), m
         87    9.908E+01                                 F               0         Z-component position of node 29 (blade 1, node 28), m
         88    2.341E+01                                 F               0         X-component position of node 30 (blade 2, node 1), m
         89   -2.353E+00                                 F               0         Y-component position of node 30 (blade 2, node 1), m
         90    1.462E+02                                 F               0         Z-component position of node 30 (blade 2, node 1), m
         91    2.319E+01                                 F               0         X-component position of node 31 (blade 2, node 2), m
         92   -1.259E+00                                 F               0         Y-component position of node 31 (blade 2, node 2), m
         93    1.455E+02                                 F               0         Z-component position of node 31 (blade 2, node 2), m
         94    2.028E+01                                 F               0         X-component position of node 32 (blade 2, node 3), m
         95    1.362E+01                                 F               0         Y-component position of node 32 (blade 2, node 3), m
         96    1.355E+02                                 F               0         Z-component position of node 32 (blade 2, node 3), m
         97    1.966E+01                                 F               0         X-component position of node 33 (blade 2, node 4), m
         98    1.679E+01                                 F               0         Y-component position of node 33 (blade 2, node 4), m
         99    1.334E+02                                 F               0         Z-component position of node 33 (blade 2, node 4), m
        100    1.904E+01                                 F               0         X-component position of node 34 (blade 2, node 5), m
        101    1.996E+01                                 F               0         Y-component position of node 34 (blade 2, node 5), m
        102    1.313E+02                                 F               0         Z-component position of node 34 (blade 2, node 5), m
        103    1.842E+01                                 F               0         X-component position of node 35 (blade 2, node 6), m
        104    2.313E+01                                 F               0         Y-component position of node 35 (blade 2, node 6), m
        105    1.291E+02                                 F               0         Z-component position of node 35 (blade 2, node 6), m
        106    1.780E+01                                 F               0         X-component position of node 36 (blade 2, node 7), m
        107    2.630E+01                                 F               0         Y-component position of node 36 (blade 2, node 7), m
        108    1.270E+02                                 F               0         Z-component position of node 36 (blade 2, node 7), m
        109    1.718E+01                                 F               0         X-component position of node 37 (blade 2, node 8), m
        110    2.947E+01                                 F               0         Y-component position of node 37 (blade 2, node 8), m
        111    1.249E+02                                 F               0         Z-component position of node 37 (blade 2, node 8), m
        112    1.655E+01                                 F               0         X-component position of node 38 (blade 2, node 9), m
        113    3.264E+01                                 F               0         Y-component position of node 38 (blade 2, node 9), m
        114    1.228E+02                                 F               0         Z-component position of node 38 (blade 2, node 9), m
        115    1.593E+01                                 F               0         X-component position of node 39 (blade 2, node 10), m
        116    3.581E+01                                 F               0         Y-component position of node 39 (blade 2, node 10), m
        117    1.206E+02                                 F               0         Z-component position of node 39 (blade 2, node 10), m
        118    1.531E+01                                 F               0         X-component position of node 40 (blade 2, node 11), m
        119    3.898E+01                                 F               0         Y-component position of node 40 (blade 2, node 11), m
        120    1.185E+02                                 F               0         Z-component position of node 40 (blade 2, node 11), m
        121    1.469E+01                                 F               0         X-component position of node 41 (blade 2, node 12), m
        122    4.215E+01                                 F               0         Y-component position of node 41 (blade 2, node 12), m
        123    1.164E+02                                 F               0         Z-component position of node 41 (blade 2, node 12), m
        124    1.407E+01                                 F               0         X-component position of node 42 (blade 2, node 13), m
        125    4.532E+01                                 F               0         Y-component position of node 42 (blade 2, node 13), m
        126    1.142E+02                                 F               0         Z-component position of node 42 (blade 2, node 13), m
        127    1.345E+01                                 F               0         X-component position of node 43 (blade 2, node 14), m
        128    4.849E+01                                 F               0         Y-component position of node 43 (blade 2, node 14), m
        129    1.121E+02                                 F               0         Z-component position of node 43 (blade 2, node 14), m
        130    1.283E+01                                 F               0         X-component position of node 44 (blade 2, node 15), m
        131    5.166E+01                                 F               0         Y-component position of node 44 (blade 2, node 15), m
        132    1.100E+02                                 F               0         Z-component position of node 44 (blade 2, node 15), m
        133    1.221E+01                                 F               0         X-component position of node 45 (blade 2, node 16), m
        134    5.483E+01                                 F               0         Y-component position of node 45 (blade 2, node 16), m
        135    1.079E+02                                 F               0         Z-component position of node 45 (blade 2, node 16), m
        136    1.159E+01                                 F               0         X-component position of node 46 (blade 2, node 17), m
        137    5.800E+01                                 F               0         Y-component position of node 46 (blade 2, node 17), m
        138    1.057E+02                                 F               0         Z-component position of node 46 (blade 2, node 17), m
        139    1.097E+01                                 F               0         X-component position of node 47 (blade 2, node 18), m
        140    6.117E+01                                 F               0         Y-component position of node 47 (blade 2, node 18), m
        141    1.036E+02                                 F               0         Z-component position of node 47 (blade 2, node 18), m
        142    1.035E+01                                 F               0         X-component position of node 48 (blade 2, node 19), m
        143    6.434E+01                                 F               0         Y-component position of node 48 (blade 2, node 19), m
        144    1.015E+02                                 F               0         Z-component position of node 48 (blade 2, node 19), m
        145    9.726E+00                                 F               0         X-component position of node 49 (blade 2, node 20), m
        146    6.751E+01                                 F               0         Y-component position of node 49 (blade 2, node 20), m
        147    9.935E+01                                 F               0         Z-component position of node 49 (blade 2, node 20), m
        148    9.105E+00                                 F               0         X-component position of node 50 (blade 2, node 21), m
        149    7.068E+01                                 F               0         Y-component position of node 50 (blade 2, node 21), m
        150    9.722E+01                                 F               0         Z-component position of node 50 (blade 2, node 21), m
        151    8.485E+00                                 F               0         X-component position of node 51 (blade 2, node 22), m
        152    7.385E+01                                 F               0         Y-component position of node 51 (blade 2, node 22), m
        153    9.510E+01                                 F               0         Z-component position of node 51 (blade 2, node 22), m
        154    7.864E+00                                 F               0         X-component position of node 52 (blade 2, node 23), m
        155    7.702E+01                                 F               0         Y-component position of node 52 (blade 2, node 23), m
        156    9.297E+01                                 F               0         Z-component position of node 52 (blade 2, node 23), m
        157    7.243E+00                                 F               0         X-component position of node 53 (blade 2, node 24), m
        158    8.019E+01                                 F               0         Y-component position of node 53 (blade 2, node 24), m
        159    9.084E+01                                 F               0         Z-component position of node 53 (blade 2, node 24), m
        160    6.622E+00                                 F               0         X-component position of node 54 (blade 2, node 25), m
        161    8.336E+01                                 F               0         Y-component position of node 54 (blade 2, node 25), m
        162    8.872E+01                                 F               0         Z-component position of node 54 (blade 2, node 25), m
        163    6.002E+00                                 F               0         X-component position of node 55 (blade 2, node 26), m
        164    8.653E+01                                 F               0         Y-component position of node 55 (blade 2, node 26), m
        165    8.659E+01                                 F               0         Z-component position of node 55 (blade 2, node 26), m
        166    5.381E+00                                 F               0         X-component position of node 56 (blade 2, node 27), m
        167    8.970E+01                                 F               0         Y-component position of node 56 (blade 2, node 27), m
        168    8.446E+01                                 F               0         Z-component position of node 56 (blade 2, node 27), m
        169    4.855E+00                                 F               0         X-component position of node 57 (blade 2, node 28), m
        170    9.238E+01                                 F               0         Y-component position of node 57 (blade 2, node 28), m
        171    8.266E+01                                 F               0         Z-component position of node 57 (blade 2, node 28), m
        172    2.568E+01                                 F               0         X-component position of node 58 (blade 3, node 1), m
        173   -6.417E+00                                 F               0         Y-component position of node 58 (blade 3, node 1), m
        174    1.546E+02                                 F               0         Z-component position of node 58 (blade 3, node 1), m
        175    2.601E+01                                 F               0         X-component position of node 59 (blade 3, node 2), m
        176   -6.302E+00                                 F               0         Y-component position of node 59 (blade 3, node 2), m
        177    1.559E+02                                 F               0         Z-component position of node 59 (blade 3, node 2), m
        178    3.055E+01                                 F               0         X-component position of node 60 (blade 3, node 3), m
        179   -4.739E+00                                 F               0         Y-component position of node 60 (blade 3, node 3), m
        180    1.734E+02                                 F               0         Z-component position of node 60 (blade 3, node 3), m
        181    3.152E+01                                 F               0         X-component position of node 61 (blade 3, node 4), m
        182   -4.406E+00                                 F               0         Y-component position of node 61 (blade 3, node 4), m
        183    1.771E+02                                 F               0         Z-component position of node 61 (blade 3, node 4), m
        184    3.249E+01                                 F               0         X-component position of node 62 (blade 3, node 5), m
        185   -4.073E+00                                 F               0         Y-component position of node 62 (blade 3, node 5), m
        186    1.809E+02                                 F               0         Z-component position of node 62 (blade 3, node 5), m
        187    3.345E+01                                 F               0         X-component position of node 63 (blade 3, node 6), m
        188   -3.740E+00                                 F               0         Y-component position of node 63 (blade 3, node 6), m
        189    1.846E+02                                 F               0         Z-component position of node 63 (blade 3, node 6), m
        190    3.442E+01                                 F               0         X-component position of node 64 (blade 3, node 7), m
        191   -3.407E+00                                 F               0         Y-component position of node 64 (blade 3, node 7), m
        192    1.883E+02                                 F               0         Z-component position of node 64 (blade 3, node 7), m
        193    3.539E+01                                 F               0         X-component position of node 65 (blade 3, node 8), m
        194   -3.074E+00                                 F               0         Y-component position of node 65 (blade 3, node 8), m
        195    1.921E+02                                 F               0         Z-component position of node 65 (blade 3, node 8), m
        196    3.635E+01                                 F               0         X-component position of node 66 (blade 3, node 9), m
        197   -2.741E+00                                 F               0         Y-component position of node 66 (blade 3, node 9), m
        198    1.958E+02                                 F               0         Z-component position of node 66 (blade 3, node 9), m
        199    3.732E+01                                 F               0         X-component position of node 67 (blade 3, node 10), m
        200   -2.408E+00                                 F               0         Y-component position of node 67 (blade 3, node 10), m
        201    1.995E+02                                 F               0         Z-component position of node 67 (blade 3, node 10), m
        202    3.829E+01                                 F               0         X-component position of node 68 (blade 3, node 11), m
        203   -2.075E+00                                 F               0         Y-component position of node 68 (blade 3, node 11), m
        204    2.033E+02                                 F               0         Z-component position of node 68 (blade 3, node 11), m
        205    3.925E+01                                 F               0         X-component position of node 69 (blade 3, node 12), m
        206   -1.742E+00                                 F               0         Y-component position of node 69 (blade 3, node 12), m
        207    2.070E+02                                 F               0         Z-component position of node 69 (blade 3, node 12), m
        208    4.022E+01                                 F               0         X-component position of node 70 (blade 3, node 13), m
        209   -1.409E+00                                 F               0         Y-component position of node 70 (blade 3, node 13), m
        210    2.107E+02                                 F               0         Z-component position of node 70 (blade 3, node 13), m
        211    4.119E+01                                 F               0         X-component position of node 71 (blade 3, node 14), m