
Linearized model: Predictions were generated on 30-Jan-2024 at 18:20:32 using OpenFAST, compiled as a 64-bit application using single precision at commit v3.5.1
 linked with  NWTC Subroutine Library; ElastoDyn; InflowWind; AeroDyn; ServoDyn; HydroDyn; MAP++ (<1.20.10>, <Oct-20-2023>)

Description from the FAST input file: CCT-9 Campign 4 model. Input files to be run with OpenFAST 3.5.0. GitHub branch from Lu Wang (https://github.com/luwang00/openfast/tree/dev) compiled on March 7, 2023.

Simulation information:
   Simulation time:                   501.2500 s
   Rotor Speed:                         0.8795 rad/s
   Azimuth:                             6.2596 rad
   Wind Speed:                         10.0000 m/s
   Number of continuous states:         0
   Number of discrete states:           0
   Number of constraint states:         0
   Number of inputs:                 1746
   Number of outputs:                   4
   Jacobians included in this file?    No

Order of inputs:
     Column   Operating Point                     Rotating Frame? Derivative Order Description
   ---------- ---------------                     --------------- ---------------- -----------
          1    1.099E+01                                 F               0         Tower X translation displacement, node 1, m
          2   -1.124E+00                                 F               0         Tower Y translation displacement, node 1, m
          3   -3.099E-01                                 F               0         Tower Z translation displacement, node 1, m
          4    1.240E+01                                 F               0         Tower X translation displacement, node 2, m
          5   -1.637E+00                                 F               0         Tower Y translation displacement, node 2, m
          6   -4.023E-01                                 F               0         Tower Z translation displacement, node 2, m
          7    1.382E+01                                 F               0         Tower X translation displacement, node 3, m
          8   -2.151E+00                                 F               0         Tower Y translation displacement, node 3, m
          9   -4.946E-01                                 F               0         Tower Z translation displacement, node 3, m
         10    1.524E+01                                 F               0         Tower X translation displacement, node 4, m
         11   -2.664E+00                                 F               0         Tower Y translation displacement, node 4, m
         12   -5.869E-01                                 F               0         Tower Z translation displacement, node 4, m
         13    1.666E+01                                 F               0         Tower X translation displacement, node 5, m
         14   -3.178E+00                                 F               0         Tower Y translation displacement, node 5, m
         15   -6.792E-01                                 F               0         Tower Z translation displacement, node 5, m
         16    1.807E+01                                 F               0         Tower X translation displacement, node 6, m
         17   -3.691E+00                                 F               0         Tower Y translation displacement, node 6, m
         18   -7.715E-01                                 F               0         Tower Z translation displacement, node 6, m
         19    1.949E+01                                 F               0         Tower X translation displacement, node 7, m
         20   -4.205E+00                                 F               0         Tower Y translation displacement, node 7, m
         21   -8.638E-01                                 F               0         Tower Z translation displacement, node 7, m
         22    2.091E+01                                 F               0         Tower X translation displacement, node 8, m
         23   -4.719E+00                                 F               0         Tower Y translation displacement, node 8, m
         24   -9.561E-01                                 F               0         Tower Z translation displacement, node 8, m
         25    2.232E+01                                 F               0         Tower X translation displacement, node 9, m
         26   -5.232E+00                                 F               0         Tower Y translation displacement, node 9, m
         27   -1.048E+00                                 F               0         Tower Z translation displacement, node 9, m
         28    2.374E+01                                 F               0         Tower X translation displacement, node 10, m
         29   -5.746E+00                                 F               0         Tower Y translation displacement, node 10, m
         30   -1.141E+00                                 F               0         Tower Z translation displacement, node 10, m
         31    2.516E+01                                 F               0         Tower X translation displacement, node 11, m
         32   -6.259E+00                                 F               0         Tower Y translation displacement, node 11, m
         33   -1.233E+00                                 F               0         Tower Z translation displacement, node 11, m
         34    9.934E-01,  9.937E-03, -1.144E-01         F               0         Tower X orientation angle, node 1, rad
         35   -5.107E-03,  9.991E-01,  4.243E-02         F               0         Tower Y orientation angle, node 1, rad
         36    1.147E-01, -4.157E-02,  9.925E-01         F               0         Tower Z orientation angle, node 1, rad
         37    9.934E-01,  9.937E-03, -1.144E-01         F               0         Tower X orientation angle, node 2, rad
         38   -5.107E-03,  9.991E-01,  4.243E-02         F               0         Tower Y orientation angle, node 2, rad
         39    1.147E-01, -4.157E-02,  9.925E-01         F               0         Tower Z orientation angle, node 2, rad
         40    9.934E-01,  9.937E-03, -1.144E-01         F               0         Tower X orientation angle, node 3, rad
         41   -5.107E-03,  9.991E-01,  4.243E-02         F               0         Tower Y orientation angle, node 3, rad
         42    1.147E-01, -4.157E-02,  9.925E-01         F               0         Tower Z orientation angle, node 3, rad
         43    9.934E-01,  9.937E-03, -1.144E-01         F               0         Tower X orientation angle, node 4, rad
         44   -5.107E-03,  9.991E-01,  4.243E-02         F               0         Tower Y orientation angle, node 4, rad
         45    1.147E-01, -4.157E-02,  9.925E-01         F               0         Tower Z orientation angle, node 4, rad
         46    9.934E-01,  9.937E-03, -1.144E-01         F               0         Tower X orientation angle, node 5, rad
         47   -5.107E-03,  9.991E-01,  4.243E-02         F               0         Tower Y orientation angle, node 5, rad
         48    1.147E-01, -4.157E-02,  9.925E-01         F               0         Tower Z orientation angle, node 5, rad
         49    9.934E-01,  9.937E-03, -1.144E-01         F               0         Tower X orientation angle, node 6, rad
         50   -5.107E-03,  9.991E-01,  4.243E-02         F               0         Tower Y orientation angle, node 6, rad
         51    1.147E-01, -4.157E-02,  9.925E-01         F               0         Tower Z orientation angle, node 6, rad
         52    9.934E-01,  9.937E-03, -1.144E-01         F               0         Tower X orientation angle, node 7, rad
         53   -5.107E-03,  9.991E-01,  4.243E-02         F               0         Tower Y orientation angle, node 7, rad
         54    1.147E-01, -4.157E-02,  9.925E-01         F               0         Tower Z orientation angle, node 7, rad
         55    9.934E-01,  9.937E-03, -1.144E-01         F               0         Tower X orientation angle, node 8, rad
         56   -5.107E-03,  9.991E-01,  4.243E-02         F               0         Tower Y orientation angle, node 8, rad
         57    1.147E-01, -4.157E-02,  9.925E-01         F               0         Tower Z orientation angle, node 8, rad
         58    9.934E-01,  9.937E-03, -1.144E-01         F               0         Tower X orientation angle, node 9, rad
         59   -5.107E-03,  9.991E-01,  4.243E-02         F               0         Tower Y orientation angle, node 9, rad
         60    1.147E-01, -4.157E-02,  9.925E-01         F               0         Tower Z orientation angle, node 9, rad
         61    9.934E-01,  9.937E-03, -1.144E-01         F               0         Tower X orientation angle, node 10, rad
         62   -5.107E-03,  9.991E-01,  4.243E-02         F               0         Tower Y orientation angle, node 10, rad
         63    1.147E-01, -4.157E-02,  9.925E-01         F               0         Tower Z orientation angle, node 10, rad
         64    9.934E-01,  9.937E-03, -1.144E-01         F               0         Tower X orientation angle, node 11, rad
         65   -5.107E-03,  9.991E-01,  4.243E-02         F               0         Tower Y orientation angle, node 11, rad
         66    1.147E-01, -4.157E-02,  9.925E-01         F               0         Tower Z orientation angle, node 11, rad
         67   -2.742E-03                                 F               0         Tower X translation velocity, node 1, m/s
         68    4.849E-03                                 F               0         Tower Y translation velocity, node 1, m/s
         69   -1.220E-04                                 F               0         Tower Z translation velocity, node 1, m/s
         70   -2.521E-03                                 F               0         Tower X translation velocity, node 2, m/s
         71    6.468E-03                                 F               0         Tower Y translation velocity, node 2, m/s
         72   -7.967E-05                                 F               0         Tower Z translation velocity, node 2, m/s
         73   -2.301E-03                                 F               0         Tower X translation velocity, node 3, m/s
         74    8.087E-03                                 F               0         Tower Y translation velocity, node 3, m/s
         75   -3.738E-05                                 F               0         Tower Z translation velocity, node 3, m/s
         76   -2.080E-03                                 F               0         Tower X translation velocity, node 4, m/s
         77    9.706E-03                                 F               0         Tower Y translation velocity, node 4, m/s
         78    4.919E-06                                 F               0         Tower Z translation velocity, node 4, m/s
         79   -1.859E-03                                 F               0         Tower X translation velocity, node 5, m/s
         80    1.133E-02                                 F               0         Tower Y translation velocity, node 5, m/s
         81    4.722E-05                                 F               0         Tower Z translation velocity, node 5, m/s
         82   -1.638E-03                                 F               0         Tower X translation velocity, node 6, m/s
         83    1.294E-02                                 F               0         Tower Y translation velocity, node 6, m/s
         84    8.951E-05                                 F               0         Tower Z translation velocity, node 6, m/s
         85   -1.418E-03                                 F               0         Tower X translation velocity, node 7, m/s
         86    1.456E-02                                 F               0         Tower Y translation velocity, node 7, m/s
         87    1.318E-04                                 F               0         Tower Z translation velocity, node 7, m/s
         88   -1.197E-03                                 F               0         Tower X translation velocity, node 8, m/s
         89    1.618E-02                                 F               0         Tower Y translation velocity, node 8, m/s
         90    1.741E-04                                 F               0         Tower Z translation velocity, node 8, m/s
         91   -9.762E-04                                 F               0         Tower X translation velocity, node 9, m/s
         92    1.780E-02                                 F               0         Tower Y translation velocity, node 9, m/s
         93    2.164E-04                                 F               0         Tower Z translation velocity, node 9, m/s
         94   -7.555E-04                                 F               0         Tower X translation velocity, node 10, m/s
         95    1.942E-02                                 F               0         Tower Y translation velocity, node 10, m/s
         96    2.587E-04                                 F               0         Tower Z translation velocity, node 10, m/s
         97   -5.348E-04                                 F               0         Tower X translation velocity, node 11, m/s
         98    2.104E-02                                 F               0         Tower Y translation velocity, node 11, m/s
         99    3.010E-04                                 F               0         Tower Z translation velocity, node 11, m/s
        100    2.613E+01                                 F               0         Hub X translation displacement, node 1, m
        101   -6.693E+00                                 F               0         Hub Y translation displacement, node 1, m
        102   -5.614E-02                                 F               0         Hub Z translation displacement, node 1, m
        103    9.760E-01,  1.423E-02, -2.175E-01         F               0         Hub X orientation angle, node 1, rad
        104   -1.025E-02,  9.998E-01,  1.939E-02         F               0         Hub Y orientation angle, node 1, rad
        105    2.177E-01, -1.669E-02,  9.759E-01         F               0         Hub Z orientation angle, node 1, rad
        106    8.583E-01                                 F               0         Hub X rotation velocity, node 1, rad/s
        107    1.253E-02                                 F               0         Hub Y rotation velocity, node 1, rad/s
        108   -1.913E-01                                 F               0         Hub Z rotation velocity, node 1, rad/s
        109    9.758E-01, -1.544E-02, -2.180E-01         F               0         Blade root 1 X orientation angle, node 1, rad
        110    1.870E-02,  9.997E-01,  1.293E-02         F               0         Blade root 1 Y orientation angle, node 1, rad
        111    2.177E-01, -1.669E-02,  9.759E-01         F               0         Blade root 1 Z orientation angle, node 1, rad
        112    9.698E-01,  2.948E-02, -2.422E-01         F               0         Blade root 2 X orientation angle, node 1, rad
        113    2.226E-01, -5.137E-01,  8.286E-01         F               0         Blade root 2 Y orientation angle, node 1, rad
        114   -9.999E-02, -8.575E-01, -5.047E-01         F               0         Blade root 2 Z orientation angle, node 1, rad
        115    9.810E-01,  2.862E-02, -1.921E-01         F               0         Blade root 3 X orientation angle, node 1, rad
        116   -1.544E-01, -4.848E-01, -8.609E-01         F               0         Blade root 3 Y orientation angle, node 1, rad
        117   -1.177E-01,  8.742E-01, -4.711E-01         F               0         Blade root 3 Z orientation angle, node 1, rad
        118    2.676E+01                                 F               0         Blade 1 X translation displacement, node 1, m
        119   -6.785E+00                                 F               0         Blade 1 Y translation displacement, node 1, m
        120   -1.595E-01                                 F               0         Blade 1 Z translation displacement, node 1, m
        121    2.691E+01                                 F               0         Blade 1 X translation displacement, node 2, m
        122   -6.808E+00                                 F               0         Blade 1 Y translation displacement, node 2, m
        123   -1.844E-01                                 F               0         Blade 1 Z translation displacement, node 2, m
        124    2.896E+01                                 F               0         Blade 1 X translation displacement, node 3, m
        125   -7.111E+00                                 F               0         Blade 1 Y translation displacement, node 3, m
        126   -5.231E-01                                 F               0         Blade 1 Z translation displacement, node 3, m
        127    2.940E+01                                 F               0         Blade 1 X translation displacement, node 4, m
        128   -7.175E+00                                 F               0         Blade 1 Y translation displacement, node 4, m
        129   -5.953E-01                                 F               0         Blade 1 Z translation displacement, node 4, m
        130    2.984E+01                                 F               0         Blade 1 X translation displacement, node 5, m
        131   -7.240E+00                                 F               0         Blade 1 Y translation displacement, node 5, m
        132   -6.674E-01                                 F               0         Blade 1 Z translation displacement, node 5, m
        133    3.028E+01                                 F               0         Blade 1 X translation displacement, node 6, m
        134   -7.304E+00                                 F               0         Blade 1 Y translation displacement, node 6, m
        135   -7.396E-01                                 F               0         Blade 1 Z translation displacement, node 6, m
        136    3.072E+01                                 F               0         Blade 1 X translation displacement, node 7, m
        137   -7.369E+00                                 F               0         Blade 1 Y translation displacement, node 7, m
        138   -8.117E-01                                 F               0         Blade 1 Z translation displacement, node 7, m
        139    3.115E+01                                 F               0         Blade 1 X translation displacement, node 8, m
        140   -7.433E+00                                 F               0         Blade 1 Y translation displacement, node 8, m
        141   -8.839E-01                                 F               0         Blade 1 Z translation displacement, node 8, m
        142    3.159E+01                                 F               0         Blade 1 X translation displacement, node 9, m
        143   -7.498E+00                                 F               0         Blade 1 Y translation displacement, node 9, m
        144   -9.561E-01                                 F               0         Blade 1 Z translation displacement, node 9, m
        145    3.203E+01                                 F               0         Blade 1 X translation displacement, node 10, m
        146   -7.563E+00                                 F               0         Blade 1 Y translation displacement, node 10, m
        147   -1.028E+00                                 F               0         Blade 1 Z translation displacement, node 10, m
        148    3.247E+01                                 F               0         Blade 1 X translation displacement, node 11, m
        149   -7.627E+00                                 F               0         Blade 1 Y translation displacement, node 11, m
        150   -1.100E+00                                 F               0         Blade 1 Z translation displacement, node 11, m
        151    3.291E+01                                 F               0         Blade 1 X translation displacement, node 12, m
        152   -7.692E+00                                 F               0         Blade 1 Y translation displacement, node 12, m
        153   -1.173E+00                                 F               0         Blade 1 Z translation displacement, node 12, m
        154    3.334E+01                                 F               0         Blade 1 X translation displacement, node 13, m
        155   -7.756E+00                                 F               0         Blade 1 Y translation displacement, node 13, m
        156   -1.245E+00                                 F               0         Blade 1 Z translation displacement, node 13, m
        157    3.378E+01                                 F               0         Blade 1 X translation displacement, node 14, m
        158   -7.821E+00                                 F               0         Blade 1 Y translation displacement, node 14, m
        159   -1.317E+00                                 F               0         Blade 1 Z translation displacement, node 14, m
        160    3.422E+01                                 F               0         Blade 1 X translation displacement, node 15, m
        161   -7.885E+00                                 F               0         Blade 1 Y translation displacement, node 15, m
        162   -1.389E+00                                 F               0         Blade 1 Z translation displacement, node 15, m
        163    3.466E+01                                 F               0         Blade 1 X translation displacement, node 16, m
        164   -7.950E+00                                 F               0         Blade 1 Y translation displacement, node 16, m
        165   -1.461E+00                                 F               0         Blade 1 Z translation displacement, node 16, m
        166    3.509E+01                                 F               0         Blade 1 X translation displacement, node 17, m
        167   -8.014E+00                                 F               0         Blade 1 Y translation displacement, node 17, m
        168   -1.533E+00                                 F               0         Blade 1 Z translation displacement, node 17, m
        169    3.553E+01                                 F               0         Blade 1 X translation displacement, node 18, m
        170   -8.079E+00                                 F               0         Blade 1 Y translation displacement, node 18, m
        171   -1.606E+00                                 F               0         Blade 1 Z translation displacement, node 18, m
        172    3.597E+01                                 F               0         Blade 1 X translation displacement, node 19, m
        173   -8.144E+00                                 F               0         Blade 1 Y translation displacement, node 19, m
        174   -1.678E+00                                 F               0         Blade 1 Z translation displacement, node 19, m
        175    3.641E+01                                 F               0         Blade 1 X translation displacement, node 20, m
        176   -8.208E+00                                 F               0         Blade 1 Y translation displacement, node 20, m
        177   -1.750E+00                                 F               0         Blade 1 Z translation displacement, node 20, m
        178    3.685E+01                                 F               0         Blade 1 X translation displacement, node 21, m
        179   -8.273E+00                                 F               0         Blade 1 Y translation displacement, node 21, m
        180   -1.822E+00                                 F               0         Blade 1 Z translation displacement, node 21, m
        181    3.728E+01                                 F               0         Blade 1 X translation displacement, node 22, m
        182   -8.337E+00                                 F               0         Blade 1 Y translation displacement, node 22, m
        183   -1.894E+00                                 F               0         Blade 1 Z translation displacement, node 22, m
        184    3.772E+01                                 F               0         Blade 1 X translation displacement, node 23, m
        185   -8.402E+00                                 F               0         Blade 1 Y translation displacement, node 23, m
        186   -1.966E+00                                 F               0         Blade 1 Z translation displacement, node 23, m
        187    3.816E+01                                 F               0         Blade 1 X translation displacement, node 24, m
        188   -8.466E+00                                 F               0         Blade 1 Y translation displacement, node 24, m
        189   -2.039E+00                                 F               0         Blade 1 Z translation displacement, node 24, m
        190    3.860E+01                                 F               0         Blade 1 X translation displacement, node 25, m
        191   -8.531E+00                                 F               0         Blade 1 Y translation displacement, node 25, m
        192   -2.111E+00                                 F               0         Blade 1 Z translation displacement, node 25, m
        193    3.904E+01                                 F               0         Blade 1 X translation displacement, node 26, m
        194   -8.595E+00                                 F               0         Blade 1 Y translation displacement, node 26, m
        195   -2.183E+00                                 F               0         Blade 1 Z translation displacement, node 26, m
        196    3.947E+01                                 F               0         Blade 1 X translation displacement, node 27, m
        197   -8.660E+00                                 F               0         Blade 1 Y translation displacement, node 27, m
        198   -2.255E+00                                 F               0         Blade 1 Z translation displacement, node 27, m
        199    3.984E+01                                 F               0         Blade 1 X translation displacement, node 28, m
        200   -8.715E+00                                 F               0         Blade 1 Y translation displacement, node 28, m
        201   -2.316E+00                                 F               0         Blade 1 Z translation displacement, node 28, m
        202    8.599E-01, -4.696E-01, -1.999E-01         F               0         Blade 1 X orientation angle, node 1, rad
        203    4.616E-01,  8.827E-01, -8.790E-02         F               0         Blade 1 Y orientation angle, node 1, rad
        204    2.177E-01, -1.669E-02,  9.759E-01         F               0         Blade 1 Z orientation angle, node 1, rad
        205    8.599E-01, -4.696E-01, -1.999E-01         F               0         Blade 1 X orientation angle, node 2, rad
        206    4.616E-01,  8.827E-01, -8.790E-02         F               0         Blade 1 Y orientation angle, node 2, rad
        207    2.177E-01, -1.669E-02,  9.759E-01         F               0         Blade 1 Z orientation angle, node 2, rad
        208    9.448E-01, -2.470E-01, -2.150E-01         F               0         Blade 1 X orientation angle, node 3, rad
        209    2.447E-01,  9.689E-01, -3.802E-02         F               0         Blade 1 Y orientation angle, node 3, rad
        210    2.177E-01, -1.669E-02,  9.759E-01         F               0         Blade 1 Z orientation angle, node 3, rad
        211    9.543E-01, -2.059E-01, -2.165E-01         F               0         Blade 1 X orientation angle, node 4, rad
        212    2.046E-01,  9.784E-01, -2.891E-02         F               0         Blade 1 Y orientation angle, node 4, rad
        213    2.177E-01, -1.669E-02,  9.759E-01         F               0         Blade 1 Z orientation angle, node 4, rad
        214    9.606E-01, -1.734E-01, -2.173E-01         F               0         Blade 1 X orientation angle, node 5, rad
        215    1.728E-01,  9.847E-01, -2.171E-02         F               0         Blade 1 Y orientation angle, node 5, rad
        216    2.177E-01, -1.669E-02,  9.759E-01         F               0         Blade 1 Z orientation angle, node 5, rad
        217    9.648E-01, -1.472E-01, -2.178E-01         F               0         Blade 1 X orientation angle, node 6, rad
        218    1.473E-01,  9.890E-01, -1.594E-02         F               0         Blade 1 Y orientation angle, node 6, rad
        219    2.177E-01, -1.669E-02,  9.759E-01         F               0         Blade 1 Z orientation angle, node 6, rad
        220    9.678E-01, -1.256E-01, -2.181E-01         F               0         Blade 1 X orientation angle, node 7, rad
        221    1.262E-01,  9.919E-01, -1.119E-02         F               0         Blade 1 Y orientation angle, node 7, rad
        222    2.177E-01, -1.669E-02,  9.759E-01         F               0         Blade 1 Z orientation angle, node 7, rad
        223    9.699E-01, -1.075E-01, -2.183E-01         F               0         Blade 1 X orientation angle, node 8, rad
        224    1.086E-01,  9.941E-01, -7.228E-03         F               0         Blade 1 Y orientation angle, node 8, rad
        225    2.177E-01, -1.669E-02,  9.759E-01         F               0         Blade 1 Z orientation angle, node 8, rad
        226    9.715E-01, -9.227E-02, -2.183E-01         F               0         Blade 1 X orientation angle, node 9, rad
        227    9.368E-02,  9.956E-01, -3.875E-03         F               0         Blade 1 Y orientation angle, node 9, rad