
Linearized model: Predictions were generated on 12-Feb-2024 at 18:31:58 using OpenFAST, compiled as a 64-bit application using single precision at commit v3.5.1
 linked with  NWTC Subroutine Library; ElastoDyn; InflowWind; AeroDyn; ServoDyn; HydroDyn; MAP++ (<1.20.10>, <Oct-20-2023>)

Description from the FAST input file: CCT-9 Campign 4 model. Input files to be run with OpenFAST 3.5.0. GitHub branch from Lu Wang (https://github.com/luwang00/openfast/tree/dev) compiled on March 7, 2023.

Simulation information:
   Simulation time:                  1005.7250 s
   Rotor Speed:                         1.0470 rad/s
   Azimuth:                             5.6582 rad
   Wind Speed:                         12.0000 m/s
   Number of continuous states:         0
   Number of discrete states:           0
   Number of constraint states:         0
   Number of inputs:                 1746
   Number of outputs:                   4
   Jacobians included in this file?    No

Order of inputs:
     Column   Operating Point                     Rotating Frame? Derivative Order Description
   ---------- ---------------                     --------------- ---------------- -----------
          1    1.518E+01                                 F               0         Tower X translation displacement, node 1, m
          2   -1.052E+00                                 F               0         Tower Y translation displacement, node 1, m
          3   -4.691E-01                                 F               0         Tower Z translation displacement, node 1, m
          4    1.704E+01                                 F               0         Tower X translation displacement, node 2, m
          5   -1.607E+00                                 F               0         Tower Y translation displacement, node 2, m
          6   -6.228E-01                                 F               0         Tower Z translation displacement, node 2, m
          7    1.890E+01                                 F               0         Tower X translation displacement, node 3, m
          8   -2.161E+00                                 F               0         Tower Y translation displacement, node 3, m
          9   -7.764E-01                                 F               0         Tower Z translation displacement, node 3, m
         10    2.076E+01                                 F               0         Tower X translation displacement, node 4, m
         11   -2.715E+00                                 F               0         Tower Y translation displacement, node 4, m
         12   -9.301E-01                                 F               0         Tower Z translation displacement, node 4, m
         13    2.263E+01                                 F               0         Tower X translation displacement, node 5, m
         14   -3.269E+00                                 F               0         Tower Y translation displacement, node 5, m
         15   -1.084E+00                                 F               0         Tower Z translation displacement, node 5, m
         16    2.449E+01                                 F               0         Tower X translation displacement, node 6, m
         17   -3.823E+00                                 F               0         Tower Y translation displacement, node 6, m
         18   -1.237E+00                                 F               0         Tower Z translation displacement, node 6, m
         19    2.635E+01                                 F               0         Tower X translation displacement, node 7, m
         20   -4.377E+00                                 F               0         Tower Y translation displacement, node 7, m
         21   -1.391E+00                                 F               0         Tower Z translation displacement, node 7, m
         22    2.821E+01                                 F               0         Tower X translation displacement, node 8, m
         23   -4.931E+00                                 F               0         Tower Y translation displacement, node 8, m
         24   -1.545E+00                                 F               0         Tower Z translation displacement, node 8, m
         25    3.007E+01                                 F               0         Tower X translation displacement, node 9, m
         26   -5.485E+00                                 F               0         Tower Y translation displacement, node 9, m
         27   -1.698E+00                                 F               0         Tower Z translation displacement, node 9, m
         28    3.193E+01                                 F               0         Tower X translation displacement, node 10, m
         29   -6.040E+00                                 F               0         Tower Y translation displacement, node 10, m
         30   -1.852E+00                                 F               0         Tower Z translation displacement, node 10, m
         31    3.380E+01                                 F               0         Tower X translation displacement, node 11, m
         32   -6.594E+00                                 F               0         Tower Y translation displacement, node 11, m
         33   -2.006E+00                                 F               0         Tower Z translation displacement, node 11, m
         34    9.885E-01,  1.508E-02, -1.501E-01         F               0         Tower X orientation angle, node 1, rad
         35   -8.162E-03,  9.989E-01,  4.661E-02         F               0         Tower Y orientation angle, node 1, rad
         36    1.507E-01, -4.485E-02,  9.876E-01         F               0         Tower Z orientation angle, node 1, rad
         37    9.885E-01,  1.508E-02, -1.501E-01         F               0         Tower X orientation angle, node 2, rad
         38   -8.162E-03,  9.989E-01,  4.661E-02         F               0         Tower Y orientation angle, node 2, rad
         39    1.507E-01, -4.485E-02,  9.876E-01         F               0         Tower Z orientation angle, node 2, rad
         40    9.885E-01,  1.508E-02, -1.501E-01         F               0         Tower X orientation angle, node 3, rad
         41   -8.162E-03,  9.989E-01,  4.661E-02         F               0         Tower Y orientation angle, node 3, rad
         42    1.507E-01, -4.485E-02,  9.876E-01         F               0         Tower Z orientation angle, node 3, rad
         43    9.885E-01,  1.508E-02, -1.501E-01         F               0         Tower X orientation angle, node 4, rad
         44   -8.162E-03,  9.989E-01,  4.661E-02         F               0         Tower Y orientation angle, node 4, rad
         45    1.507E-01, -4.485E-02,  9.876E-01         F               0         Tower Z orientation angle, node 4, rad
         46    9.885E-01,  1.508E-02, -1.501E-01         F               0         Tower X orientation angle, node 5, rad
         47   -8.162E-03,  9.989E-01,  4.661E-02         F               0         Tower Y orientation angle, node 5, rad
         48    1.507E-01, -4.485E-02,  9.876E-01         F               0         Tower Z orientation angle, node 5, rad
         49    9.885E-01,  1.508E-02, -1.501E-01         F               0         Tower X orientation angle, node 6, rad
         50   -8.162E-03,  9.989E-01,  4.661E-02         F               0         Tower Y orientation angle, node 6, rad
         51    1.507E-01, -4.485E-02,  9.876E-01         F               0         Tower Z orientation angle, node 6, rad
         52    9.885E-01,  1.508E-02, -1.501E-01         F               0         Tower X orientation angle, node 7, rad
         53   -8.162E-03,  9.989E-01,  4.661E-02         F               0         Tower Y orientation angle, node 7, rad
         54    1.507E-01, -4.485E-02,  9.876E-01         F               0         Tower Z orientation angle, node 7, rad
         55    9.885E-01,  1.508E-02, -1.501E-01         F               0         Tower X orientation angle, node 8, rad
         56   -8.162E-03,  9.989E-01,  4.661E-02         F               0         Tower Y orientation angle, node 8, rad
         57    1.507E-01, -4.485E-02,  9.876E-01         F               0         Tower Z orientation angle, node 8, rad
         58    9.885E-01,  1.508E-02, -1.501E-01         F               0         Tower X orientation angle, node 9, rad
         59   -8.162E-03,  9.989E-01,  4.661E-02         F               0         Tower Y orientation angle, node 9, rad
         60    1.507E-01, -4.485E-02,  9.876E-01         F               0         Tower Z orientation angle, node 9, rad
         61    9.885E-01,  1.508E-02, -1.501E-01         F               0         Tower X orientation angle, node 10, rad
         62   -8.162E-03,  9.989E-01,  4.661E-02         F               0         Tower Y orientation angle, node 10, rad
         63    1.507E-01, -4.485E-02,  9.876E-01         F               0         Tower Z orientation angle, node 10, rad
         64    9.885E-01,  1.508E-02, -1.501E-01         F               0         Tower X orientation angle, node 11, rad
         65   -8.162E-03,  9.989E-01,  4.661E-02         F               0         Tower Y orientation angle, node 11, rad
         66    1.507E-01, -4.485E-02,  9.876E-01         F               0         Tower Z orientation angle, node 11, rad
         67   -3.596E-04                                 F               0         Tower X translation velocity, node 1, m/s
         68    7.857E-03                                 F               0         Tower Y translation velocity, node 1, m/s
         69    4.583E-03                                 F               0         Tower Z translation velocity, node 1, m/s
         70   -7.059E-04                                 F               0         Tower X translation velocity, node 2, m/s
         71    1.284E-02                                 F               0         Tower Y translation velocity, node 2, m/s
         72    4.862E-03                                 F               0         Tower Z translation velocity, node 2, m/s
         73   -1.052E-03                                 F               0         Tower X translation velocity, node 3, m/s
         74    1.782E-02                                 F               0         Tower Y translation velocity, node 3, m/s
         75    5.141E-03                                 F               0         Tower Z translation velocity, node 3, m/s
         76   -1.398E-03                                 F               0         Tower X translation velocity, node 4, m/s
         77    2.280E-02                                 F               0         Tower Y translation velocity, node 4, m/s
         78    5.420E-03                                 F               0         Tower Z translation velocity, node 4, m/s
         79   -1.745E-03                                 F               0         Tower X translation velocity, node 5, m/s
         80    2.777E-02                                 F               0         Tower Y translation velocity, node 5, m/s
         81    5.699E-03                                 F               0         Tower Z translation velocity, node 5, m/s
         82   -2.091E-03                                 F               0         Tower X translation velocity, node 6, m/s
         83    3.275E-02                                 F               0         Tower Y translation velocity, node 6, m/s
         84    5.978E-03                                 F               0         Tower Z translation velocity, node 6, m/s
         85   -2.437E-03                                 F               0         Tower X translation velocity, node 7, m/s
         86    3.773E-02                                 F               0         Tower Y translation velocity, node 7, m/s
         87    6.257E-03                                 F               0         Tower Z translation velocity, node 7, m/s
         88   -2.784E-03                                 F               0         Tower X translation velocity, node 8, m/s
         89    4.271E-02                                 F               0         Tower Y translation velocity, node 8, m/s
         90    6.536E-03                                 F               0         Tower Z translation velocity, node 8, m/s
         91   -3.130E-03                                 F               0         Tower X translation velocity, node 9, m/s
         92    4.769E-02                                 F               0         Tower Y translation velocity, node 9, m/s
         93    6.815E-03                                 F               0         Tower Z translation velocity, node 9, m/s
         94   -3.476E-03                                 F               0         Tower X translation velocity, node 10, m/s
         95    5.267E-02                                 F               0         Tower Y translation velocity, node 10, m/s
         96    7.094E-03                                 F               0         Tower Z translation velocity, node 10, m/s
         97   -3.822E-03                                 F               0         Tower X translation velocity, node 11, m/s
         98    5.765E-02                                 F               0         Tower Y translation velocity, node 11, m/s
         99    7.373E-03                                 F               0         Tower Z translation velocity, node 11, m/s
        100    3.510E+01                                 F               0         Hub X translation displacement, node 1, m
        101   -7.109E+00                                 F               0         Hub Y translation displacement, node 1, m
        102   -4.815E-01                                 F               0         Hub Z translation displacement, node 1, m
        103    9.674E-01,  1.969E-02, -2.526E-01         F               0         Hub X orientation angle, node 1, rad
        104   -1.548E-01,  8.352E-01, -5.277E-01         F               0         Hub Y orientation angle, node 1, rad
        105    2.006E-01,  5.495E-01,  8.110E-01         F               0         Hub Z orientation angle, node 1, rad
        106    1.012E+00                                 F               0         Hub X rotation velocity, node 1, rad/s
        107    2.058E-02                                 F               0         Hub Y rotation velocity, node 1, rad/s
        108   -2.642E-01                                 F               0         Hub Z rotation velocity, node 1, rad/s
        109    9.715E-01, -5.098E-03, -2.368E-01         F               0         Blade root 1 X orientation angle, node 1, rad
        110   -1.260E-01,  8.355E-01, -5.349E-01         F               0         Blade root 1 Y orientation angle, node 1, rad
        111    2.006E-01,  5.495E-01,  8.110E-01         F               0         Blade root 1 Z orientation angle, node 1, rad
        112    9.595E-01,  1.795E-02, -2.811E-01         F               0         Blade root 2 X orientation angle, node 1, rad
        113    2.796E-01,  5.884E-02,  9.583E-01         F               0         Blade root 2 Y orientation angle, node 1, rad
        114    3.374E-02, -9.981E-01,  5.144E-02         F               0         Blade root 2 Z orientation angle, node 1, rad
        115    9.698E-01,  4.619E-02, -2.394E-01         F               0         Blade root 3 X orientation angle, node 1, rad
        116   -6.757E-02, -8.925E-01, -4.459E-01         F               0         Blade root 3 Y orientation angle, node 1, rad
        117   -2.343E-01,  4.486E-01, -8.625E-01         F               0         Blade root 3 Z orientation angle, node 1, rad
        118    3.563E+01                                 F               0         Blade 1 X translation displacement, node 1, m
        119   -4.064E+00                                 F               0         Blade 1 Y translation displacement, node 1, m
        120   -1.498E+00                                 F               0         Blade 1 Z translation displacement, node 1, m
        121    3.576E+01                                 F               0         Blade 1 X translation displacement, node 2, m
        122   -3.331E+00                                 F               0         Blade 1 Y translation displacement, node 2, m
        123   -1.743E+00                                 F               0         Blade 1 Z translation displacement, node 2, m
        124    3.751E+01                                 F               0         Blade 1 X translation displacement, node 3, m
        125    6.645E+00                                 F               0         Blade 1 Y translation displacement, node 3, m
        126   -5.073E+00                                 F               0         Blade 1 Z translation displacement, node 3, m
        127    3.788E+01                                 F               0         Blade 1 X translation displacement, node 4, m
        128    8.770E+00                                 F               0         Blade 1 Y translation displacement, node 4, m
        129   -5.783E+00                                 F               0         Blade 1 Z translation displacement, node 4, m
        130    3.825E+01                                 F               0         Blade 1 X translation displacement, node 5, m
        131    1.090E+01                                 F               0         Blade 1 Y translation displacement, node 5, m
        132   -6.493E+00                                 F               0         Blade 1 Z translation displacement, node 5, m
        133    3.862E+01                                 F               0         Blade 1 X translation displacement, node 6, m
        134    1.302E+01                                 F               0         Blade 1 Y translation displacement, node 6, m
        135   -7.202E+00                                 F               0         Blade 1 Z translation displacement, node 6, m
        136    3.899E+01                                 F               0         Blade 1 X translation displacement, node 7, m
        137    1.515E+01                                 F               0         Blade 1 Y translation displacement, node 7, m
        138   -7.912E+00                                 F               0         Blade 1 Z translation displacement, node 7, m
        139    3.936E+01                                 F               0         Blade 1 X translation displacement, node 8, m
        140    1.727E+01                                 F               0         Blade 1 Y translation displacement, node 8, m
        141   -8.622E+00                                 F               0         Blade 1 Z translation displacement, node 8, m
        142    3.973E+01                                 F               0         Blade 1 X translation displacement, node 9, m
        143    1.940E+01                                 F               0         Blade 1 Y translation displacement, node 9, m
        144   -9.331E+00                                 F               0         Blade 1 Z translation displacement, node 9, m
        145    4.011E+01                                 F               0         Blade 1 X translation displacement, node 10, m
        146    2.152E+01                                 F               0         Blade 1 Y translation displacement, node 10, m
        147   -1.004E+01                                 F               0         Blade 1 Z translation displacement, node 10, m
        148    4.048E+01                                 F               0         Blade 1 X translation displacement, node 11, m
        149    2.365E+01                                 F               0         Blade 1 Y translation displacement, node 11, m
        150   -1.075E+01                                 F               0         Blade 1 Z translation displacement, node 11, m
        151    4.085E+01                                 F               0         Blade 1 X translation displacement, node 12, m
        152    2.577E+01                                 F               0         Blade 1 Y translation displacement, node 12, m
        153   -1.146E+01                                 F               0         Blade 1 Z translation displacement, node 12, m
        154    4.122E+01                                 F               0         Blade 1 X translation displacement, node 13, m
        155    2.790E+01                                 F               0         Blade 1 Y translation displacement, node 13, m
        156   -1.217E+01                                 F               0         Blade 1 Z translation displacement, node 13, m
        157    4.159E+01                                 F               0         Blade 1 X translation displacement, node 14, m
        158    3.002E+01                                 F               0         Blade 1 Y translation displacement, node 14, m
        159   -1.288E+01                                 F               0         Blade 1 Z translation displacement, node 14, m
        160    4.196E+01                                 F               0         Blade 1 X translation displacement, node 15, m
        161    3.215E+01                                 F               0         Blade 1 Y translation displacement, node 15, m
        162   -1.359E+01                                 F               0         Blade 1 Z translation displacement, node 15, m
        163    4.233E+01                                 F               0         Blade 1 X translation displacement, node 16, m
        164    3.427E+01                                 F               0         Blade 1 Y translation displacement, node 16, m
        165   -1.430E+01                                 F               0         Blade 1 Z translation displacement, node 16, m
        166    4.271E+01                                 F               0         Blade 1 X translation displacement, node 17, m
        167    3.640E+01                                 F               0         Blade 1 Y translation displacement, node 17, m
        168   -1.501E+01                                 F               0         Blade 1 Z translation displacement, node 17, m
        169    4.308E+01                                 F               0         Blade 1 X translation displacement, node 18, m
        170    3.853E+01                                 F               0         Blade 1 Y translation displacement, node 18, m
        171   -1.572E+01                                 F               0         Blade 1 Z translation displacement, node 18, m
        172    4.345E+01                                 F               0         Blade 1 X translation displacement, node 19, m
        173    4.065E+01                                 F               0         Blade 1 Y translation displacement, node 19, m
        174   -1.643E+01                                 F               0         Blade 1 Z translation displacement, node 19, m
        175    4.382E+01                                 F               0         Blade 1 X translation displacement, node 20, m
        176    4.278E+01                                 F               0         Blade 1 Y translation displacement, node 20, m
        177   -1.714E+01                                 F               0         Blade 1 Z translation displacement, node 20, m
        178    4.419E+01                                 F               0         Blade 1 X translation displacement, node 21, m
        179    4.490E+01                                 F               0         Blade 1 Y translation displacement, node 21, m
        180   -1.785E+01                                 F               0         Blade 1 Z translation displacement, node 21, m
        181    4.456E+01                                 F               0         Blade 1 X translation displacement, node 22, m
        182    4.703E+01                                 F               0         Blade 1 Y translation displacement, node 22, m
        183   -1.856E+01                                 F               0         Blade 1 Z translation displacement, node 22, m
        184    4.493E+01                                 F               0         Blade 1 X translation displacement, node 23, m
        185    4.915E+01                                 F               0         Blade 1 Y translation displacement, node 23, m
        186   -1.927E+01                                 F               0         Blade 1 Z translation displacement, node 23, m
        187    4.530E+01                                 F               0         Blade 1 X translation displacement, node 24, m
        188    5.128E+01                                 F               0         Blade 1 Y translation displacement, node 24, m
        189   -1.998E+01                                 F               0         Blade 1 Z translation displacement, node 24, m
        190    4.568E+01                                 F               0         Blade 1 X translation displacement, node 25, m
        191    5.340E+01                                 F               0         Blade 1 Y translation displacement, node 25, m
        192   -2.069E+01                                 F               0         Blade 1 Z translation displacement, node 25, m
        193    4.605E+01                                 F               0         Blade 1 X translation displacement, node 26, m
        194    5.553E+01                                 F               0         Blade 1 Y translation displacement, node 26, m
        195   -2.139E+01                                 F               0         Blade 1 Z translation displacement, node 26, m
        196    4.642E+01                                 F               0         Blade 1 X translation displacement, node 27, m
        197    5.765E+01                                 F               0         Blade 1 Y translation displacement, node 27, m
        198   -2.210E+01                                 F               0         Blade 1 Z translation displacement, node 27, m
        199    4.673E+01                                 F               0         Blade 1 X translation displacement, node 28, m
        200    5.946E+01                                 F               0         Blade 1 Y translation displacement, node 28, m
        201   -2.271E+01                                 F               0         Blade 1 Z translation displacement, node 28, m
        202    9.221E-01, -3.855E-01,  3.319E-02         F               0         Blade 1 X orientation angle, node 1, rad
        203    3.309E-01,  7.412E-01, -5.840E-01         F               0         Blade 1 Y orientation angle, node 1, rad
        204    2.006E-01,  5.495E-01,  8.110E-01         F               0         Blade 1 Z orientation angle, node 1, rad
        205    9.221E-01, -3.855E-01,  3.319E-02         F               0         Blade 1 X orientation angle, node 2, rad
        206    3.309E-01,  7.412E-01, -5.840E-01         F               0         Blade 1 Y orientation angle, node 2, rad
        207    2.006E-01,  5.495E-01,  8.110E-01         F               0         Blade 1 Z orientation angle, node 2, rad
        208    9.743E-01, -1.989E-01, -1.062E-01         F               0         Blade 1 X orientation angle, node 3, rad
        209    1.029E-01,  8.115E-01, -5.753E-01         F               0         Blade 1 Y orientation angle, node 3, rad
        210    2.006E-01,  5.495E-01,  8.110E-01         F               0         Blade 1 Z orientation angle, node 3, rad
        211    9.777E-01, -1.644E-01, -1.304E-01         F               0         Blade 1 X orientation angle, node 4, rad
        212    6.171E-02,  8.191E-01, -5.703E-01         F               0         Blade 1 Y orientation angle, node 4, rad
        213    2.006E-01,  5.495E-01,  8.110E-01         F               0         Blade 1 Z orientation angle, node 4, rad
        214    9.792E-01, -1.372E-01, -1.492E-01         F               0         Blade 1 X orientation angle, node 5, rad
        215    2.926E-02,  8.241E-01, -5.656E-01         F               0         Blade 1 Y orientation angle, node 5, rad
        216    2.006E-01,  5.495E-01,  8.110E-01         F               0         Blade 1 Z orientation angle, node 5, rad
        217    9.797E-01, -1.153E-01, -1.642E-01         F               0         Blade 1 X orientation angle, node 6, rad
        218    3.273E-03,  8.275E-01, -5.615E-01         F               0         Blade 1 Y orientation angle, node 6, rad
        219    2.006E-01,  5.495E-01,  8.110E-01         F               0         Blade 1 Z orientation angle, node 6, rad
        220    9.795E-01, -9.718E-02, -1.764E-01         F               0         Blade 1 X orientation angle, node 7, rad
        221   -1.810E-02,  8.298E-01, -5.578E-01         F               0         Blade 1 Y orientation angle, node 7, rad
        222    2.006E-01,  5.495E-01,  8.110E-01         F               0         Blade 1 Z orientation angle, node 7, rad
        223    9.790E-01, -8.210E-02, -1.865E-01         F               0         Blade 1 X orientation angle, node 8, rad
        224   -3.588E-02,  8.314E-01, -5.545E-01         F               0         Blade 1 Y orientation angle, node 8, rad
        225    2.006E-01,  5.495E-01,  8.110E-01         F               0         Blade 1 Z orientation angle, node 8, rad
        226    9.784E-01, -6.932E-02, -1.950E-01         F               0         Blade 1 X orientation angle, node 9, rad
        227   -5.091E-02,  8.326E-01, -5.515E-01         F               0         Blade 1 Y orientation angle, node 9, rad