
Linearized model: Predictions were generated on 12-Feb-2024 at 18:31:58 using OpenFAST, compiled as a 64-bit application using single precision at commit v3.5.1
 linked with  NWTC Subroutine Library; ElastoDyn; InflowWind; AeroDyn; ServoDyn; HydroDyn; MAP++ (<1.20.10>, <Oct-20-2023>)

Description from the FAST input file: CCT-9 Campign 4 model. Input files to be run with OpenFAST 3.5.0. GitHub branch from Lu Wang (https://github.com/luwang00/openfast/tree/dev) compiled on March 7, 2023.

Simulation information:
   Simulation time:                  1002.7500 s
   Rotor Speed:                         1.0464 rad/s
   Azimuth:                             2.5439 rad
   Wind Speed:                         12.0000 m/s
   Number of continuous states:         0
   Number of discrete states:           0
   Number of constraint states:         0
   Number of inputs:                  303
   Number of outputs:                   1
   Jacobians included in this file?    No

Order of inputs:
     Column   Operating Point                     Rotating Frame? Derivative Order Description
   ---------- ---------------                     --------------- ---------------- -----------
          1   -1.080E+01                                 F               0         X-component position of node 1 (hub), m
          2    0.000E+00                                 F               0         Y-component position of node 1 (hub), m
          3    1.497E+02                                 F               0         Z-component position of node 1 (hub), m
          4    2.318E+01                                 F               0         X-component position of node 2 (blade 1, node 1), m
          5   -1.007E+01                                 F               0         Y-component position of node 2 (blade 1, node 1), m
          6    1.447E+02                                 F               0         Z-component position of node 2 (blade 1, node 1), m
          7    2.291E+01                                 F               0         X-component position of node 3 (blade 1, node 2), m
          8   -1.078E+01                                 F               0         Y-component position of node 3 (blade 1, node 2), m
          9    1.436E+02                                 F               0         Z-component position of node 3 (blade 1, node 2), m
         10    1.918E+01                                 F               0         X-component position of node 4 (blade 1, node 3), m
         11   -2.033E+01                                 F               0         Y-component position of node 4 (blade 1, node 3), m
         12    1.286E+02                                 F               0         Z-component position of node 4 (blade 1, node 3), m
         13    1.839E+01                                 F               0         X-component position of node 5 (blade 1, node 4), m
         14   -2.236E+01                                 F               0         Y-component position of node 5 (blade 1, node 4), m
         15    1.254E+02                                 F               0         Z-component position of node 5 (blade 1, node 4), m
         16    1.760E+01                                 F               0         X-component position of node 6 (blade 1, node 5), m
         17   -2.440E+01                                 F               0         Y-component position of node 6 (blade 1, node 5), m
         18    1.222E+02                                 F               0         Z-component position of node 6 (blade 1, node 5), m
         19    1.681E+01                                 F               0         X-component position of node 7 (blade 1, node 6), m
         20   -2.643E+01                                 F               0         Y-component position of node 7 (blade 1, node 6), m
         21    1.190E+02                                 F               0         Z-component position of node 7 (blade 1, node 6), m
         22    1.601E+01                                 F               0         X-component position of node 8 (blade 1, node 7), m
         23   -2.847E+01                                 F               0         Y-component position of node 8 (blade 1, node 7), m
         24    1.158E+02                                 F               0         Z-component position of node 8 (blade 1, node 7), m
         25    1.522E+01                                 F               0         X-component position of node 9 (blade 1, node 8), m
         26   -3.050E+01                                 F               0         Y-component position of node 9 (blade 1, node 8), m
         27    1.126E+02                                 F               0         Z-component position of node 9 (blade 1, node 8), m
         28    1.443E+01                                 F               0         X-component position of node 10 (blade 1, node 9), m
         29   -3.254E+01                                 F               0         Y-component position of node 10 (blade 1, node 9), m
         30    1.094E+02                                 F               0         Z-component position of node 10 (blade 1, node 9), m
         31    1.363E+01                                 F               0         X-component position of node 11 (blade 1, node 10), m
         32   -3.457E+01                                 F               0         Y-component position of node 11 (blade 1, node 10), m
         33    1.062E+02                                 F               0         Z-component position of node 11 (blade 1, node 10), m
         34    1.284E+01                                 F               0         X-component position of node 12 (blade 1, node 11), m
         35   -3.661E+01                                 F               0         Y-component position of node 12 (blade 1, node 11), m
         36    1.031E+02                                 F               0         Z-component position of node 12 (blade 1, node 11), m
         37    1.205E+01                                 F               0         X-component position of node 13 (blade 1, node 12), m
         38   -3.864E+01                                 F               0         Y-component position of node 13 (blade 1, node 12), m
         39    9.986E+01                                 F               0         Z-component position of node 13 (blade 1, node 12), m
         40    1.125E+01                                 F               0         X-component position of node 14 (blade 1, node 13), m
         41   -4.068E+01                                 F               0         Y-component position of node 14 (blade 1, node 13), m
         42    9.667E+01                                 F               0         Z-component position of node 14 (blade 1, node 13), m
         43    1.046E+01                                 F               0         X-component position of node 15 (blade 1, node 14), m
         44   -4.271E+01                                 F               0         Y-component position of node 15 (blade 1, node 14), m
         45    9.348E+01                                 F               0         Z-component position of node 15 (blade 1, node 14), m
         46    9.668E+00                                 F               0         X-component position of node 16 (blade 1, node 15), m
         47   -4.475E+01                                 F               0         Y-component position of node 16 (blade 1, node 15), m
         48    9.029E+01                                 F               0         Z-component position of node 16 (blade 1, node 15), m
         49    8.875E+00                                 F               0         X-component position of node 17 (blade 1, node 16), m
         50   -4.678E+01                                 F               0         Y-component position of node 17 (blade 1, node 16), m
         51    8.710E+01                                 F               0         Z-component position of node 17 (blade 1, node 16), m
         52    8.082E+00                                 F               0         X-component position of node 18 (blade 1, node 17), m
         53   -4.882E+01                                 F               0         Y-component position of node 18 (blade 1, node 17), m
         54    8.390E+01                                 F               0         Z-component position of node 18 (blade 1, node 17), m
         55    7.289E+00                                 F               0         X-component position of node 19 (blade 1, node 18), m
         56   -5.085E+01                                 F               0         Y-component position of node 19 (blade 1, node 18), m
         57    8.071E+01                                 F               0         Z-component position of node 19 (blade 1, node 18), m
         58    6.496E+00                                 F               0         X-component position of node 20 (blade 1, node 19), m
         59   -5.289E+01                                 F               0         Y-component position of node 20 (blade 1, node 19), m
         60    7.752E+01                                 F               0         Z-component position of node 20 (blade 1, node 19), m
         61    5.703E+00                                 F               0         X-component position of node 21 (blade 1, node 20), m
         62   -5.492E+01                                 F               0         Y-component position of node 21 (blade 1, node 20), m
         63    7.433E+01                                 F               0         Z-component position of node 21 (blade 1, node 20), m
         64    4.910E+00                                 F               0         X-component position of node 22 (blade 1, node 21), m
         65   -5.696E+01                                 F               0         Y-component position of node 22 (blade 1, node 21), m
         66    7.114E+01                                 F               0         Z-component position of node 22 (blade 1, node 21), m
         67    4.117E+00                                 F               0         X-component position of node 23 (blade 1, node 22), m
         68   -5.899E+01                                 F               0         Y-component position of node 23 (blade 1, node 22), m
         69    6.794E+01                                 F               0         Z-component position of node 23 (blade 1, node 22), m
         70    3.324E+00                                 F               0         X-component position of node 24 (blade 1, node 23), m
         71   -6.103E+01                                 F               0         Y-component position of node 24 (blade 1, node 23), m
         72    6.475E+01                                 F               0         Z-component position of node 24 (blade 1, node 23), m
         73    2.531E+00                                 F               0         X-component position of node 25 (blade 1, node 24), m
         74   -6.306E+01                                 F               0         Y-component position of node 25 (blade 1, node 24), m
         75    6.156E+01                                 F               0         Z-component position of node 25 (blade 1, node 24), m
         76    1.738E+00                                 F               0         X-component position of node 26 (blade 1, node 25), m
         77   -6.510E+01                                 F               0         Y-component position of node 26 (blade 1, node 25), m
         78    5.837E+01                                 F               0         Z-component position of node 26 (blade 1, node 25), m
         79    9.453E-01                                 F               0         X-component position of node 27 (blade 1, node 26), m
         80   -6.713E+01                                 F               0         Y-component position of node 27 (blade 1, node 26), m
         81    5.518E+01                                 F               0         Z-component position of node 27 (blade 1, node 26), m
         82    1.523E-01                                 F               0         X-component position of node 28 (blade 1, node 27), m
         83   -6.917E+01                                 F               0         Y-component position of node 28 (blade 1, node 27), m
         84    5.198E+01                                 F               0         Z-component position of node 28 (blade 1, node 27), m
         85   -5.200E-01                                 F               0         X-component position of node 29 (blade 1, node 28), m
         86   -7.089E+01                                 F               0         Y-component position of node 29 (blade 1, node 28), m
         87    4.928E+01                                 F               0         Z-component position of node 29 (blade 1, node 28), m
         88    2.417E+01                                 F               0         X-component position of node 30 (blade 2, node 1), m
         89   -1.623E+00                                 F               0         Y-component position of node 30 (blade 2, node 1), m
         90    1.491E+02                                 F               0         Z-component position of node 30 (blade 2, node 1), m
         91    2.413E+01                                 F               0         X-component position of node 31 (blade 2, node 2), m
         92   -2.886E-01                                 F               0         Y-component position of node 31 (blade 2, node 2), m
         93    1.491E+02                                 F               0         Z-component position of node 31 (blade 2, node 2), m
         94    2.365E+01                                 F               0         X-component position of node 32 (blade 2, node 3), m
         95    1.785E+01                                 F               0         Y-component position of node 32 (blade 2, node 3), m
         96    1.486E+02                                 F               0         Z-component position of node 32 (blade 2, node 3), m
         97    2.355E+01                                 F               0         X-component position of node 33 (blade 2, node 4), m
         98    2.172E+01                                 F               0         Y-component position of node 33 (blade 2, node 4), m
         99    1.485E+02                                 F               0         Z-component position of node 33 (blade 2, node 4), m
        100    2.345E+01                                 F               0         X-component position of node 34 (blade 2, node 5), m
        101    2.558E+01                                 F               0         Y-component position of node 34 (blade 2, node 5), m
        102    1.484E+02                                 F               0         Z-component position of node 34 (blade 2, node 5), m
        103    2.335E+01                                 F               0         X-component position of node 35 (blade 2, node 6), m
        104    2.945E+01                                 F               0         Y-component position of node 35 (blade 2, node 6), m
        105    1.483E+02                                 F               0         Z-component position of node 35 (blade 2, node 6), m
        106    2.325E+01                                 F               0         X-component position of node 36 (blade 2, node 7), m
        107    3.331E+01                                 F               0         Y-component position of node 36 (blade 2, node 7), m
        108    1.482E+02                                 F               0         Z-component position of node 36 (blade 2, node 7), m
        109    2.314E+01                                 F               0         X-component position of node 37 (blade 2, node 8), m
        110    3.718E+01                                 F               0         Y-component position of node 37 (blade 2, node 8), m
        111    1.481E+02                                 F               0         Z-component position of node 37 (blade 2, node 8), m
        112    2.304E+01                                 F               0         X-component position of node 38 (blade 2, node 9), m
        113    4.104E+01                                 F               0         Y-component position of node 38 (blade 2, node 9), m
        114    1.481E+02                                 F               0         Z-component position of node 38 (blade 2, node 9), m
        115    2.294E+01                                 F               0         X-component position of node 39 (blade 2, node 10), m
        116    4.491E+01                                 F               0         Y-component position of node 39 (blade 2, node 10), m
        117    1.480E+02                                 F               0         Z-component position of node 39 (blade 2, node 10), m
        118    2.284E+01                                 F               0         X-component position of node 40 (blade 2, node 11), m
        119    4.877E+01                                 F               0         Y-component position of node 40 (blade 2, node 11), m
        120    1.479E+02                                 F               0         Z-component position of node 40 (blade 2, node 11), m
        121    2.273E+01                                 F               0         X-component position of node 41 (blade 2, node 12), m
        122    5.264E+01                                 F               0         Y-component position of node 41 (blade 2, node 12), m
        123    1.478E+02                                 F               0         Z-component position of node 41 (blade 2, node 12), m
        124    2.263E+01                                 F               0         X-component position of node 42 (blade 2, node 13), m
        125    5.650E+01                                 F               0         Y-component position of node 42 (blade 2, node 13), m
        126    1.477E+02                                 F               0         Z-component position of node 42 (blade 2, node 13), m
        127    2.253E+01                                 F               0         X-component position of node 43 (blade 2, node 14), m
        128    6.037E+01                                 F               0         Y-component position of node 43 (blade 2, node 14), m
        129    1.476E+02                                 F               0         Z-component position of node 43 (blade 2, node 14), m
        130    2.243E+01                                 F               0         X-component position of node 44 (blade 2, node 15), m
        131    6.423E+01                                 F               0         Y-component position of node 44 (blade 2, node 15), m
        132    1.475E+02                                 F               0         Z-component position of node 44 (blade 2, node 15), m
        133    2.233E+01                                 F               0         X-component position of node 45 (blade 2, node 16), m
        134    6.810E+01                                 F               0         Y-component position of node 45 (blade 2, node 16), m
        135    1.474E+02                                 F               0         Z-component position of node 45 (blade 2, node 16), m
        136    2.222E+01                                 F               0         X-component position of node 46 (blade 2, node 17), m
        137    7.196E+01                                 F               0         Y-component position of node 46 (blade 2, node 17), m
        138    1.473E+02                                 F               0         Z-component position of node 46 (blade 2, node 17), m
        139    2.212E+01                                 F               0         X-component position of node 47 (blade 2, node 18), m
        140    7.583E+01                                 F               0         Y-component position of node 47 (blade 2, node 18), m
        141    1.472E+02                                 F               0         Z-component position of node 47 (blade 2, node 18), m
        142    2.202E+01                                 F               0         X-component position of node 48 (blade 2, node 19), m
        143    7.969E+01                                 F               0         Y-component position of node 48 (blade 2, node 19), m
        144    1.471E+02                                 F               0         Z-component position of node 48 (blade 2, node 19), m
        145    2.192E+01                                 F               0         X-component position of node 49 (blade 2, node 20), m
        146    8.356E+01                                 F               0         Y-component position of node 49 (blade 2, node 20), m
        147    1.470E+02                                 F               0         Z-component position of node 49 (blade 2, node 20), m
        148    2.181E+01                                 F               0         X-component position of node 50 (blade 2, node 21), m
        149    8.742E+01                                 F               0         Y-component position of node 50 (blade 2, node 21), m
        150    1.469E+02                                 F               0         Z-component position of node 50 (blade 2, node 21), m
        151    2.171E+01                                 F               0         X-component position of node 51 (blade 2, node 22), m
        152    9.129E+01                                 F               0         Y-component position of node 51 (blade 2, node 22), m
        153    1.468E+02                                 F               0         Z-component position of node 51 (blade 2, node 22), m
        154    2.161E+01                                 F               0         X-component position of node 52 (blade 2, node 23), m
        155    9.516E+01                                 F               0         Y-component position of node 52 (blade 2, node 23), m
        156    1.467E+02                                 F               0         Z-component position of node 52 (blade 2, node 23), m
        157    2.151E+01                                 F               0         X-component position of node 53 (blade 2, node 24), m
        158    9.902E+01                                 F               0         Y-component position of node 53 (blade 2, node 24), m
        159    1.466E+02                                 F               0         Z-component position of node 53 (blade 2, node 24), m
        160    2.141E+01                                 F               0         X-component position of node 54 (blade 2, node 25), m
        161    1.029E+02                                 F               0         Y-component position of node 54 (blade 2, node 25), m
        162    1.465E+02                                 F               0         Z-component position of node 54 (blade 2, node 25), m
        163    2.130E+01                                 F               0         X-component position of node 55 (blade 2, node 26), m
        164    1.068E+02                                 F               0         Y-component position of node 55 (blade 2, node 26), m
        165    1.464E+02                                 F               0         Z-component position of node 55 (blade 2, node 26), m
        166    2.120E+01                                 F               0         X-component position of node 56 (blade 2, node 27), m
        167    1.106E+02                                 F               0         Y-component position of node 56 (blade 2, node 27), m
        168    1.463E+02                                 F               0         Z-component position of node 56 (blade 2, node 27), m
        169    2.111E+01                                 F               0         X-component position of node 57 (blade 2, node 28), m
        170    1.139E+02                                 F               0         Y-component position of node 57 (blade 2, node 28), m
        171    1.463E+02                                 F               0         Z-component position of node 57 (blade 2, node 28), m
        172    2.560E+01                                 F               0         X-component position of node 58 (blade 3, node 1), m
        173   -9.780E+00                                 F               0         Y-component position of node 58 (blade 3, node 1), m
        174    1.540E+02                                 F               0         Z-component position of node 58 (blade 3, node 1), m
        175    2.591E+01                                 F               0         X-component position of node 59 (blade 3, node 2), m
        176   -1.041E+01                                 F               0         Y-component position of node 59 (blade 3, node 2), m
        177    1.551E+02                                 F               0         Z-component position of node 59 (blade 3, node 2), m
        178    3.011E+01                                 F               0         X-component position of node 60 (blade 3, node 3), m
        179   -1.900E+01                                 F               0         Y-component position of node 60 (blade 3, node 3), m
        180    1.705E+02                                 F               0         Z-component position of node 60 (blade 3, node 3), m
        181    3.100E+01                                 F               0         X-component position of node 61 (blade 3, node 4), m
        182   -2.083E+01                                 F               0         Y-component position of node 61 (blade 3, node 4), m
        183    1.738E+02                                 F               0         Z-component position of node 61 (blade 3, node 4), m
        184    3.190E+01                                 F               0         X-component position of node 62 (blade 3, node 5), m
        185   -2.266E+01                                 F               0         Y-component position of node 62 (blade 3, node 5), m
        186    1.771E+02                                 F               0         Z-component position of node 62 (blade 3, node 5), m
        187    3.279E+01                                 F               0         X-component position of node 63 (blade 3, node 6), m
        188   -2.449E+01                                 F               0         Y-component position of node 63 (blade 3, node 6), m
        189    1.804E+02                                 F               0         Z-component position of node 63 (blade 3, node 6), m
        190    3.369E+01                                 F               0         X-component position of node 64 (blade 3, node 7), m
        191   -2.632E+01                                 F               0         Y-component position of node 64 (blade 3, node 7), m
        192    1.837E+02                                 F               0         Z-component position of node 64 (blade 3, node 7), m
        193    3.459E+01                                 F               0         X-component position of node 65 (blade 3, node 8), m
        194   -2.815E+01                                 F               0         Y-component position of node 65 (blade 3, node 8), m
        195    1.870E+02                                 F               0         Z-component position of node 65 (blade 3, node 8), m
        196    3.548E+01                                 F               0         X-component position of node 66 (blade 3, node 9), m
        197   -2.998E+01                                 F               0         Y-component position of node 66 (blade 3, node 9), m
        198    1.902E+02                                 F               0         Z-component position of node 66 (blade 3, node 9), m
        199    3.638E+01                                 F               0         X-component position of node 67 (blade 3, node 10), m
        200   -3.181E+01                                 F               0         Y-component position of node 67 (blade 3, node 10), m
        201    1.935E+02                                 F               0         Z-component position of node 67 (blade 3, node 10), m
        202    3.727E+01                                 F               0         X-component position of node 68 (blade 3, node 11), m
        203   -3.364E+01                                 F               0         Y-component position of node 68 (blade 3, node 11), m
        204    1.968E+02                                 F               0         Z-component position of node 68 (blade 3, node 11), m
        205    3.817E+01                                 F               0         X-component position of node 69 (blade 3, node 12), m
        206   -3.547E+01                                 F               0         Y-component position of node 69 (blade 3, node 12), m
        207    2.001E+02                                 F               0         Z-component position of node 69 (blade 3, node 12), m
        208    3.906E+01                                 F               0         X-component position of node 70 (blade 3, node 13), m
        209   -3.730E+01                                 F               0         Y-component position of node 70 (blade 3, node 13), m
        210    2.034E+02                                 F               0         Z-component position of node 70 (blade 3, node 13), m
        211    3.996E+01                                 F               0         X-component position of node 71 (blade 3, node 14), m