
Linearized model: Predictions were generated on 30-Jan-2024 at 18:20:32 using OpenFAST, compiled as a 64-bit application using single precision at commit v3.5.1
 linked with  NWTC Subroutine Library; ElastoDyn; InflowWind; AeroDyn; ServoDyn; HydroDyn; MAP++ (<1.20.10>, <Oct-20-2023>)

Description from the FAST input file: CCT-9 Campign 4 model. Input files to be run with OpenFAST 3.5.0. GitHub branch from Lu Wang (https://github.com/luwang00/openfast/tree/dev) compiled on March 7, 2023.

Simulation information:
   Simulation time:                   502.2250 s
   Rotor Speed:                         0.8794 rad/s
   Azimuth:                             0.8338 rad
   Wind Speed:                         10.0000 m/s
   Number of continuous states:        14
   Number of discrete states:           0
   Number of constraint states:         0
   Number of inputs:                 1890
   Number of outputs:                  19
   Jacobians included in this file?    No

Order of continuous states:
   Row/Column Operating Point                     Rotating Frame? Derivative Order Description
   ---------- ---------------                     --------------- ---------------- -----------
          1    8.880E+00                                 F               2         Platform horizontal surge translation DOF (internal DOF index = DOF_Sg), m
          2   -3.590E-01                                 F               2         Platform horizontal sway translation DOF (internal DOF index = DOF_Sw), m
          3   -1.724E-01                                 F               2         Platform vertical heave translation DOF (internal DOF index = DOF_Hv), m
          4    4.222E-02                                 F               2         Platform roll tilt rotation DOF (internal DOF index = DOF_R), rad
          5    1.154E-01                                 F               2         Platform pitch tilt rotation DOF (internal DOF index = DOF_P), rad
          6    7.569E-03                                 F               2         Platform yaw rotation DOF (internal DOF index = DOF_Y), rad
          7    5.546E+00                                 F               2         Variable speed generator DOF (internal DOF index = DOF_GeAz), rad
          8   -3.351E-03                                 F               2         First time derivative of Platform horizontal surge translation DOF (internal DOF index = DOF_Sg), m/s
          9    2.341E-03                                 F               2         First time derivative of Platform horizontal sway translation DOF (internal DOF index = DOF_Sw), m/s
         10    1.353E-03                                 F               2         First time derivative of Platform vertical heave translation DOF (internal DOF index = DOF_Hv), m/s
         11   -6.664E-05                                 F               2         First time derivative of Platform roll tilt rotation DOF (internal DOF index = DOF_R), rad/s
         12    2.290E-05                                 F               2         First time derivative of Platform pitch tilt rotation DOF (internal DOF index = DOF_P), rad/s
         13   -1.972E-05                                 F               2         First time derivative of Platform yaw rotation DOF (internal DOF index = DOF_Y), rad/s
         14    8.794E-01                                 F               2         First time derivative of Variable speed generator DOF (internal DOF index = DOF_GeAz), rad/s

Order of continuous state derivatives:
   Row/Column Operating Point                     Rotating Frame? Derivative Order Description
   ---------- ---------------                     --------------- ---------------- -----------
          1   -3.351E-03                                 F               2         First time derivative of Platform horizontal surge translation DOF (internal DOF index = DOF_Sg), m/s
          2    2.341E-03                                 F               2         First time derivative of Platform horizontal sway translation DOF (internal DOF index = DOF_Sw), m/s
          3    1.353E-03                                 F               2         First time derivative of Platform vertical heave translation DOF (internal DOF index = DOF_Hv), m/s
          4   -6.664E-05                                 F               2         First time derivative of Platform roll tilt rotation DOF (internal DOF index = DOF_R), rad/s
          5    2.290E-05                                 F               2         First time derivative of Platform pitch tilt rotation DOF (internal DOF index = DOF_P), rad/s
          6   -1.972E-05                                 F               2         First time derivative of Platform yaw rotation DOF (internal DOF index = DOF_Y), rad/s
          7    8.794E-01                                 F               2         First time derivative of Variable speed generator DOF (internal DOF index = DOF_GeAz), rad/s
          8   -2.563E-04                                 F               2         First time derivative of First time derivative of Platform horizontal surge translation DOF (internal DOF index = DOF_Sg), m/s/s
          9   -2.619E-04                                 F               2         First time derivative of First time derivative of Platform horizontal sway translation DOF (internal DOF index = DOF_Sw), m/s/s
         10    1.581E-03                                 F               2         First time derivative of First time derivative of Platform vertical heave translation DOF (internal DOF index = DOF_Hv), m/s/s
         11    7.746E-05                                 F               2         First time derivative of First time derivative of Platform roll tilt rotation DOF (internal DOF index = DOF_R), rad/s/s
         12    5.410E-06                                 F               2         First time derivative of First time derivative of Platform pitch tilt rotation DOF (internal DOF index = DOF_P), rad/s/s
         13   -1.999E-05                                 F               2         First time derivative of First time derivative of Platform yaw rotation DOF (internal DOF index = DOF_Y), rad/s/s
         14   -9.373E-05                                 F               2         First time derivative of First time derivative of Variable speed generator DOF (internal DOF index = DOF_GeAz), rad/s/s

Order of inputs:
     Column   Operating Point                     Rotating Frame? Derivative Order Description
   ---------- ---------------                     --------------- ---------------- -----------
          1    9.440E+01                                 F               0         Blade 1 X force, node 1, N
          2    7.731E+01                                 F               0         Blade 1 Y force, node 1, N
          3    7.229E+01                                 F               0         Blade 1 Z force, node 1, N
          4    3.478E+02                                 F               0         Blade 1 X force, node 2, N
          5    1.387E+02                                 F               0         Blade 1 Y force, node 2, N
          6    8.676E+01                                 F               0         Blade 1 Z force, node 2, N
          7    4.158E+02                                 F               0         Blade 1 X force, node 3, N
          8    9.996E+01                                 F               0         Blade 1 Y force, node 3, N
          9    2.273E+01                                 F               0         Blade 1 Z force, node 3, N
         10    5.214E+02                                 F               0         Blade 1 X force, node 4, N
         11    7.899E+01                                 F               0         Blade 1 Y force, node 4, N
         12   -2.847E+01                                 F               0         Blade 1 Z force, node 4, N
         13    6.270E+02                                 F               0         Blade 1 X force, node 5, N
         14    5.801E+01                                 F               0         Blade 1 Y force, node 5, N
         15   -7.967E+01                                 F               0         Blade 1 Z force, node 5, N
         16    7.325E+02                                 F               0         Blade 1 X force, node 6, N
         17    3.703E+01                                 F               0         Blade 1 Y force, node 6, N
         18   -1.309E+02                                 F               0         Blade 1 Z force, node 6, N
         19    8.381E+02                                 F               0         Blade 1 X force, node 7, N
         20    1.605E+01                                 F               0         Blade 1 Y force, node 7, N
         21   -1.821E+02                                 F               0         Blade 1 Z force, node 7, N
         22    9.436E+02                                 F               0         Blade 1 X force, node 8, N
         23   -4.924E+00                                 F               0         Blade 1 Y force, node 8, N
         24   -2.333E+02                                 F               0         Blade 1 Z force, node 8, N
         25    1.049E+03                                 F               0         Blade 1 X force, node 9, N
         26   -2.590E+01                                 F               0         Blade 1 Y force, node 9, N
         27   -2.845E+02                                 F               0         Blade 1 Z force, node 9, N
         28    1.155E+03                                 F               0         Blade 1 X force, node 10, N
         29   -4.688E+01                                 F               0         Blade 1 Y force, node 10, N
         30   -3.357E+02                                 F               0         Blade 1 Z force, node 10, N
         31    1.260E+03                                 F               0         Blade 1 X force, node 11, N
         32   -6.786E+01                                 F               0         Blade 1 Y force, node 11, N
         33   -3.868E+02                                 F               0         Blade 1 Z force, node 11, N
         34    1.366E+03                                 F               0         Blade 1 X force, node 12, N
         35   -8.884E+01                                 F               0         Blade 1 Y force, node 12, N
         36   -4.380E+02                                 F               0         Blade 1 Z force, node 12, N
         37    1.471E+03                                 F               0         Blade 1 X force, node 13, N
         38   -1.098E+02                                 F               0         Blade 1 Y force, node 13, N
         39   -4.892E+02                                 F               0         Blade 1 Z force, node 13, N
         40    1.577E+03                                 F               0         Blade 1 X force, node 14, N
         41   -1.308E+02                                 F               0         Blade 1 Y force, node 14, N
         42   -5.404E+02                                 F               0         Blade 1 Z force, node 14, N
         43    1.683E+03                                 F               0         Blade 1 X force, node 15, N
         44   -1.518E+02                                 F               0         Blade 1 Y force, node 15, N
         45   -5.916E+02                                 F               0         Blade 1 Z force, node 15, N
         46    1.788E+03                                 F               0         Blade 1 X force, node 16, N
         47   -1.727E+02                                 F               0         Blade 1 Y force, node 16, N
         48   -6.428E+02                                 F               0         Blade 1 Z force, node 16, N
         49    2.198E+03                                 F               0         Blade 1 X force, node 17, N
         50   -2.236E+02                                 F               0         Blade 1 Y force, node 17, N
         51   -8.042E+02                                 F               0         Blade 1 Z force, node 17, N
         52    1.697E+03                                 F               0         Blade 1 X force, node 18, N
         53   -1.664E+02                                 F               0         Blade 1 Y force, node 18, N
         54   -6.132E+02                                 F               0         Blade 1 Z force, node 18, N
         55    2.111E+03                                 F               0         Blade 1 X force, node 19, N
         56   -1.941E+02                                 F               0         Blade 1 Y force, node 19, N
         57   -7.469E+02                                 F               0         Blade 1 Z force, node 19, N
         58    1.822E+03                                 F               0         Blade 1 X force, node 20, N
         59   -1.575E+02                                 F               0         Blade 1 Y force, node 20, N
         60   -6.324E+02                                 F               0         Blade 1 Z force, node 20, N
         61    2.728E+03                                 F               0         Blade 1 X force, node 21, N
         62   -2.191E+02                                 F               0         Blade 1 Y force, node 21, N
         63   -9.261E+02                                 F               0         Blade 1 Z force, node 21, N
         64    2.439E+03                                 F               0         Blade 1 X force, node 22, N
         65   -1.813E+02                                 F               0         Blade 1 Y force, node 22, N
         66   -8.101E+02                                 F               0         Blade 1 Z force, node 22, N
         67    2.532E+03                                 F               0         Blade 1 X force, node 23, N
         68   -1.754E+02                                 F               0         Blade 1 Y force, node 23, N
         69   -8.253E+02                                 F               0         Blade 1 Z force, node 23, N
         70    2.672E+03                                 F               0         Blade 1 X force, node 24, N
         71   -1.723E+02                                 F               0         Blade 1 Y force, node 24, N
         72   -8.550E+02                                 F               0         Blade 1 Z force, node 24, N
         73    2.764E+03                                 F               0         Blade 1 X force, node 25, N
         74   -1.655E+02                                 F               0         Blade 1 Y force, node 25, N
         75   -8.689E+02                                 F               0         Blade 1 Z force, node 25, N
         76    2.872E+03                                 F               0         Blade 1 X force, node 26, N
         77   -1.596E+02                                 F               0         Blade 1 Y force, node 26, N
         78   -8.876E+02                                 F               0         Blade 1 Z force, node 26, N
         79    3.471E+03                                 F               0         Blade 1 X force, node 27, N
         80   -1.782E+02                                 F               0         Blade 1 Y force, node 27, N
         81   -1.055E+03                                 F               0         Blade 1 Z force, node 27, N
         82    2.595E+03                                 F               0         Blade 1 X force, node 28, N
         83   -1.228E+02                                 F               0         Blade 1 Y force, node 28, N
         84   -7.756E+02                                 F               0         Blade 1 Z force, node 28, N
         85    3.194E+03                                 F               0         Blade 1 X force, node 29, N
         86   -1.409E+02                                 F               0         Blade 1 Y force, node 29, N
         87   -9.423E+02                                 F               0         Blade 1 Z force, node 29, N
         88    2.734E+03                                 F               0         Blade 1 X force, node 30, N
         89   -1.123E+02                                 F               0         Blade 1 Y force, node 30, N
         90   -7.963E+02                                 F               0         Blade 1 Z force, node 30, N
         91    3.977E+03                                 F               0         Blade 1 X force, node 31, N
         92   -1.498E+02                                 F               0         Blade 1 Y force, node 31, N
         93   -1.142E+03                                 F               0         Blade 1 Z force, node 31, N
         94    3.516E+03                                 F               0         Blade 1 X force, node 32, N
         95   -1.208E+02                                 F               0         Blade 1 Y force, node 32, N
         96   -9.949E+02                                 F               0         Blade 1 Z force, node 32, N
         97    3.622E+03                                 F               0         Blade 1 X force, node 33, N
         98   -1.138E+02                                 F               0         Blade 1 Y force, node 33, N
         99   -1.012E+03                                 F               0         Blade 1 Z force, node 33, N
        100    3.729E+03                                 F               0         Blade 1 X force, node 34, N
        101   -1.068E+02                                 F               0         Blade 1 Y force, node 34, N
        102   -1.029E+03                                 F               0         Blade 1 Z force, node 34, N
        103    3.835E+03                                 F               0         Blade 1 X force, node 35, N
        104   -9.962E+01                                 F               0         Blade 1 Y force, node 35, N
        105   -1.046E+03                                 F               0         Blade 1 Z force, node 35, N
        106    3.941E+03                                 F               0         Blade 1 X force, node 36, N
        107   -9.232E+01                                 F               0         Blade 1 Y force, node 36, N
        108   -1.062E+03                                 F               0         Blade 1 Z force, node 36, N
        109    4.736E+03                                 F               0         Blade 1 X force, node 37, N
        110   -9.880E+01                                 F               0         Blade 1 Y force, node 37, N
        111   -1.262E+03                                 F               0         Blade 1 Z force, node 37, N
        112    3.465E+03                                 F               0         Blade 1 X force, node 38, N
        113   -6.388E+01                                 F               0         Blade 1 Y force, node 38, N
        114   -9.127E+02                                 F               0         Blade 1 Z force, node 38, N
        115    4.261E+03                                 F               0         Blade 1 X force, node 39, N
        116   -7.020E+01                                 F               0         Blade 1 Y force, node 39, N
        117   -1.112E+03                                 F               0         Blade 1 Z force, node 39, N
        118    3.645E+03                                 F               0         Blade 1 X force, node 40, N
        119   -5.319E+01                                 F               0         Blade 1 Y force, node 40, N
        120   -9.431E+02                                 F               0         Blade 1 Z force, node 40, N
        121    5.197E+03                                 F               0         Blade 1 X force, node 41, N
        122   -6.475E+01                                 F               0         Blade 1 Y force, node 41, N
        123   -1.331E+03                                 F               0         Blade 1 Z force, node 41, N
        124    4.579E+03                                 F               0         Blade 1 X force, node 42, N
        125   -4.746E+01                                 F               0         Blade 1 Y force, node 42, N
        126   -1.161E+03                                 F               0         Blade 1 Z force, node 42, N
        127    4.684E+03                                 F               0         Blade 1 X force, node 43, N
        128   -3.972E+01                                 F               0         Blade 1 Y force, node 43, N
        129   -1.177E+03                                 F               0         Blade 1 Z force, node 43, N
        130    4.815E+03                                 F               0         Blade 1 X force, node 44, N
        131   -3.211E+01                                 F               0         Blade 1 Y force, node 44, N
        132   -1.199E+03                                 F               0         Blade 1 Z force, node 44, N
        133    4.869E+03                                 F               0         Blade 1 X force, node 45, N
        134   -2.396E+01                                 F               0         Blade 1 Y force, node 45, N
        135   -1.202E+03                                 F               0         Blade 1 Z force, node 45, N
        136    4.999E+03                                 F               0         Blade 1 X force, node 46, N
        137   -1.626E+01                                 F               0         Blade 1 Y force, node 46, N
        138   -1.224E+03                                 F               0         Blade 1 Z force, node 46, N
        139    6.001E+03                                 F               0         Blade 1 X force, node 47, N
        140   -9.228E+00                                 F               0         Blade 1 Y force, node 47, N
        141   -1.456E+03                                 F               0         Blade 1 Z force, node 47, N
        142    4.312E+03                                 F               0         Blade 1 X force, node 48, N
        143    4.119E-01                                 F               0         Blade 1 Y force, node 48, N
        144   -1.038E+03                                 F               0         Blade 1 Z force, node 48, N
        145    5.313E+03                                 F               0         Blade 1 X force, node 49, N
        146    7.583E+00                                 F               0         Blade 1 Y force, node 49, N
        147   -1.270E+03                                 F               0         Blade 1 Z force, node 49, N
        148    4.555E+03                                 F               0         Blade 1 X force, node 50, N
        149    1.243E+01                                 F               0         Blade 1 Y force, node 50, N
        150   -1.081E+03                                 F               0         Blade 1 Z force, node 50, N
        151    6.384E+03                                 F               0         Blade 1 X force, node 51, N
        152    2.679E+01                                 F               0         Blade 1 Y force, node 51, N
        153   -1.504E+03                                 F               0         Blade 1 Z force, node 51, N
        154    5.628E+03                                 F               0         Blade 1 X force, node 52, N
        155    3.165E+01                                 F               0         Blade 1 Y force, node 52, N
        156   -1.316E+03                                 F               0         Blade 1 Z force, node 52, N
        157    5.733E+03                                 F               0         Blade 1 X force, node 53, N
        158    3.969E+01                                 F               0         Blade 1 Y force, node 53, N
        159   -1.332E+03                                 F               0         Blade 1 Z force, node 53, N
        160    5.903E+03                                 F               0         Blade 1 X force, node 54, N
        161    4.829E+01                                 F               0         Blade 1 Y force, node 54, N
        162   -1.362E+03                                 F               0         Blade 1 Z force, node 54, N
        163    5.879E+03                                 F               0         Blade 1 X force, node 55, N
        164    5.531E+01                                 F               0         Blade 1 Y force, node 55, N
        165   -1.348E+03                                 F               0         Blade 1 Z force, node 55, N
        166    6.048E+03                                 F               0         Blade 1 X force, node 56, N
        167    6.401E+01                                 F               0         Blade 1 Y force, node 56, N
        168   -1.378E+03                                 F               0         Blade 1 Z force, node 56, N
        169    7.267E+03                                 F               0         Blade 1 X force, node 57, N
        170    8.579E+01                                 F               0         Blade 1 Y force, node 57, N
        171   -1.644E+03                                 F               0         Blade 1 Z force, node 57, N
        172    5.143E+03                                 F               0         Blade 1 X force, node 58, N
        173    6.672E+01                                 F               0         Blade 1 Y force, node 58, N
        174   -1.156E+03                                 F               0         Blade 1 Z force, node 58, N
        175    6.362E+03                                 F               0         Blade 1 X force, node 59, N
        176    8.858E+01                                 F               0         Blade 1 Y force, node 59, N
        177   -1.423E+03                                 F               0         Blade 1 Z force, node 59, N
        178    5.476E+03                                 F               0         Blade 1 X force, node 60, N
        179    8.141E+01                                 F               0         Blade 1 Y force, node 60, N
        180   -1.219E+03                                 F               0         Blade 1 Z force, node 60, N
        181    7.561E+03                                 F               0         Blade 1 X force, node 61, N
        182    1.205E+02                                 F               0         Blade 1 Y force, node 61, N
        183   -1.673E+03                                 F               0         Blade 1 Z force, node 61, N
        184    6.673E+03                                 F               0         Blade 1 X force, node 62, N
        185    1.134E+02                                 F               0         Blade 1 Y force, node 62, N
        186   -1.467E+03                                 F               0         Blade 1 Z force, node 62, N
        187    6.775E+03                                 F               0         Blade 1 X force, node 63, N
        188    1.218E+02                                 F               0         Blade 1 Y force, node 63, N
        189   -1.482E+03                                 F               0         Blade 1 Z force, node 63, N
        190    6.993E+03                                 F               0         Blade 1 X force, node 64, N
        191    1.323E+02                                 F               0         Blade 1 Y force, node 64, N
        192   -1.521E+03                                 F               0         Blade 1 Z force, node 64, N
        193    6.868E+03                                 F               0         Blade 1 X force, node 65, N
        194    1.362E+02                                 F               0         Blade 1 Y force, node 65, N
        195   -1.486E+03                                 F               0         Blade 1 Z force, node 65, N
        196    7.089E+03                                 F               0         Blade 1 X force, node 66, N
        197    1.467E+02                                 F               0         Blade 1 Y force, node 66, N
        198   -1.527E+03                                 F               0         Blade 1 Z force, node 66, N
        199    8.535E+03                                 F               0         Blade 1 X force, node 67, N
        200    1.844E+02                                 F               0         Blade 1 Y force, node 67, N
        201   -1.828E+03                                 F               0         Blade 1 Z force, node 67, N
        202    5.958E+03                                 F               0         Blade 1 X force, node 68, N
        203    1.340E+02                                 F               0         Blade 1 Y force, node 68, N
        204   -1.270E+03                                 F               0         Blade 1 Z force, node 68, N
        205    7.403E+03                                 F               0         Blade 1 X force, node 69, N
        206    1.718E+02                                 F               0         Blade 1 Y force, node 69, N
        207   -1.571E+03                                 F               0         Blade 1 Z force, node 69, N
        208    6.401E+03                                 F               0         Blade 1 X force, node 70, N
        209    1.532E+02                                 F               0         Blade 1 Y force, node 70, N
        210   -1.353E+03                                 F               0         Blade 1 Z force, node 70, N