
Linearized model: Predictions were generated on 30-Jan-2024 at 18:20:32 using OpenFAST, compiled as a 64-bit application using single precision at commit v3.5.1
 linked with  NWTC Subroutine Library; ElastoDyn; InflowWind; AeroDyn; ServoDyn; HydroDyn; MAP++ (<1.20.10>, <Oct-20-2023>)

Description from the FAST input file: CCT-9 Campign 4 model. Input files to be run with OpenFAST 3.5.0. GitHub branch from Lu Wang (https://github.com/luwang00/openfast/tree/dev) compiled on March 7, 2023.

Simulation information:
   Simulation time:                   507.1750 s
   Rotor Speed:                         0.8794 rad/s
   Azimuth:                             5.1870 rad
   Wind Speed:                         10.0000 m/s
   Number of continuous states:         0
   Number of discrete states:           0
   Number of constraint states:         0
   Number of inputs:                  303
   Number of outputs:                   1
   Jacobians included in this file?    No

Order of inputs:
     Column   Operating Point                     Rotating Frame? Derivative Order Description
   ---------- ---------------                     --------------- ---------------- -----------
          1   -1.080E+01                                 F               0         X-component position of node 1 (hub), m
          2    0.000E+00                                 F               0         Y-component position of node 1 (hub), m
          3    1.497E+02                                 F               0         Z-component position of node 1 (hub), m
          4    1.586E+01                                 F               0         X-component position of node 2 (blade 1, node 1), m
          5   -1.973E+00                                 F               0         Y-component position of node 2 (blade 1, node 1), m
          6    1.524E+02                                 F               0         Z-component position of node 2 (blade 1, node 1), m
          7    1.598E+01                                 F               0         X-component position of node 3 (blade 1, node 2), m
          8   -8.122E-01                                 F               0         Y-component position of node 3 (blade 1, node 2), m
          9    1.530E+02                                 F               0         Z-component position of node 3 (blade 1, node 2), m
         10    1.772E+01                                 F               0         X-component position of node 4 (blade 1, node 3), m
         11    1.498E+01                                 F               0         Y-component position of node 4 (blade 1, node 3), m
         12    1.618E+02                                 F               0         Z-component position of node 4 (blade 1, node 3), m
         13    1.808E+01                                 F               0         X-component position of node 5 (blade 1, node 4), m
         14    1.834E+01                                 F               0         Y-component position of node 5 (blade 1, node 4), m
         15    1.637E+02                                 F               0         Z-component position of node 5 (blade 1, node 4), m
         16    1.845E+01                                 F               0         X-component position of node 6 (blade 1, node 5), m
         17    2.171E+01                                 F               0         Y-component position of node 6 (blade 1, node 5), m
         18    1.656E+02                                 F               0         Z-component position of node 6 (blade 1, node 5), m
         19    1.882E+01                                 F               0         X-component position of node 7 (blade 1, node 6), m
         20    2.507E+01                                 F               0         Y-component position of node 7 (blade 1, node 6), m
         21    1.674E+02                                 F               0         Z-component position of node 7 (blade 1, node 6), m
         22    1.919E+01                                 F               0         X-component position of node 8 (blade 1, node 7), m
         23    2.844E+01                                 F               0         Y-component position of node 8 (blade 1, node 7), m
         24    1.693E+02                                 F               0         Z-component position of node 8 (blade 1, node 7), m
         25    1.956E+01                                 F               0         X-component position of node 9 (blade 1, node 8), m
         26    3.180E+01                                 F               0         Y-component position of node 9 (blade 1, node 8), m
         27    1.712E+02                                 F               0         Z-component position of node 9 (blade 1, node 8), m
         28    1.993E+01                                 F               0         X-component position of node 10 (blade 1, node 9), m
         29    3.516E+01                                 F               0         Y-component position of node 10 (blade 1, node 9), m
         30    1.730E+02                                 F               0         Z-component position of node 10 (blade 1, node 9), m
         31    2.030E+01                                 F               0         X-component position of node 11 (blade 1, node 10), m
         32    3.853E+01                                 F               0         Y-component position of node 11 (blade 1, node 10), m
         33    1.749E+02                                 F               0         Z-component position of node 11 (blade 1, node 10), m
         34    2.067E+01                                 F               0         X-component position of node 12 (blade 1, node 11), m
         35    4.189E+01                                 F               0         Y-component position of node 12 (blade 1, node 11), m
         36    1.768E+02                                 F               0         Z-component position of node 12 (blade 1, node 11), m
         37    2.104E+01                                 F               0         X-component position of node 13 (blade 1, node 12), m
         38    4.526E+01                                 F               0         Y-component position of node 13 (blade 1, node 12), m
         39    1.787E+02                                 F               0         Z-component position of node 13 (blade 1, node 12), m
         40    2.141E+01                                 F               0         X-component position of node 14 (blade 1, node 13), m
         41    4.862E+01                                 F               0         Y-component position of node 14 (blade 1, node 13), m
         42    1.805E+02                                 F               0         Z-component position of node 14 (blade 1, node 13), m
         43    2.177E+01                                 F               0         X-component position of node 15 (blade 1, node 14), m
         44    5.199E+01                                 F               0         Y-component position of node 15 (blade 1, node 14), m
         45    1.824E+02                                 F               0         Z-component position of node 15 (blade 1, node 14), m
         46    2.214E+01                                 F               0         X-component position of node 16 (blade 1, node 15), m
         47    5.535E+01                                 F               0         Y-component position of node 16 (blade 1, node 15), m
         48    1.843E+02                                 F               0         Z-component position of node 16 (blade 1, node 15), m
         49    2.251E+01                                 F               0         X-component position of node 17 (blade 1, node 16), m
         50    5.872E+01                                 F               0         Y-component position of node 17 (blade 1, node 16), m
         51    1.861E+02                                 F               0         Z-component position of node 17 (blade 1, node 16), m
         52    2.288E+01                                 F               0         X-component position of node 18 (blade 1, node 17), m
         53    6.208E+01                                 F               0         Y-component position of node 18 (blade 1, node 17), m
         54    1.880E+02                                 F               0         Z-component position of node 18 (blade 1, node 17), m
         55    2.325E+01                                 F               0         X-component position of node 19 (blade 1, node 18), m
         56    6.544E+01                                 F               0         Y-component position of node 19 (blade 1, node 18), m
         57    1.899E+02                                 F               0         Z-component position of node 19 (blade 1, node 18), m
         58    2.362E+01                                 F               0         X-component position of node 20 (blade 1, node 19), m
         59    6.881E+01                                 F               0         Y-component position of node 20 (blade 1, node 19), m
         60    1.918E+02                                 F               0         Z-component position of node 20 (blade 1, node 19), m
         61    2.399E+01                                 F               0         X-component position of node 21 (blade 1, node 20), m
         62    7.217E+01                                 F               0         Y-component position of node 21 (blade 1, node 20), m
         63    1.936E+02                                 F               0         Z-component position of node 21 (blade 1, node 20), m
         64    2.436E+01                                 F               0         X-component position of node 22 (blade 1, node 21), m
         65    7.554E+01                                 F               0         Y-component position of node 22 (blade 1, node 21), m
         66    1.955E+02                                 F               0         Z-component position of node 22 (blade 1, node 21), m
         67    2.473E+01                                 F               0         X-component position of node 23 (blade 1, node 22), m
         68    7.890E+01                                 F               0         Y-component position of node 23 (blade 1, node 22), m
         69    1.974E+02                                 F               0         Z-component position of node 23 (blade 1, node 22), m
         70    2.509E+01                                 F               0         X-component position of node 24 (blade 1, node 23), m
         71    8.227E+01                                 F               0         Y-component position of node 24 (blade 1, node 23), m
         72    1.992E+02                                 F               0         Z-component position of node 24 (blade 1, node 23), m
         73    2.546E+01                                 F               0         X-component position of node 25 (blade 1, node 24), m
         74    8.563E+01                                 F               0         Y-component position of node 25 (blade 1, node 24), m
         75    2.011E+02                                 F               0         Z-component position of node 25 (blade 1, node 24), m
         76    2.583E+01                                 F               0         X-component position of node 26 (blade 1, node 25), m
         77    8.900E+01                                 F               0         Y-component position of node 26 (blade 1, node 25), m
         78    2.030E+02                                 F               0         Z-component position of node 26 (blade 1, node 25), m
         79    2.620E+01                                 F               0         X-component position of node 27 (blade 1, node 26), m
         80    9.236E+01                                 F               0         Y-component position of node 27 (blade 1, node 26), m
         81    2.049E+02                                 F               0         Z-component position of node 27 (blade 1, node 26), m
         82    2.657E+01                                 F               0         X-component position of node 28 (blade 1, node 27), m
         83    9.572E+01                                 F               0         Y-component position of node 28 (blade 1, node 27), m
         84    2.067E+02                                 F               0         Z-component position of node 28 (blade 1, node 27), m
         85    2.688E+01                                 F               0         X-component position of node 29 (blade 1, node 28), m
         86    9.858E+01                                 F               0         Y-component position of node 29 (blade 1, node 28), m
         87    2.083E+02                                 F               0         Z-component position of node 29 (blade 1, node 28), m
         88    1.600E+01                                 F               0         X-component position of node 30 (blade 2, node 1), m
         89   -1.157E+01                                 F               0         Y-component position of node 30 (blade 2, node 1), m
         90    1.524E+02                                 F               0         Z-component position of node 30 (blade 2, node 1), m
         91    1.617E+01                                 F               0         X-component position of node 31 (blade 2, node 2), m
         92   -1.272E+01                                 F               0         Y-component position of node 31 (blade 2, node 2), m
         93    1.531E+02                                 F               0         Z-component position of node 31 (blade 2, node 2), m
         94    1.839E+01                                 F               0         X-component position of node 32 (blade 2, node 3), m
         95   -2.836E+01                                 F               0         Y-component position of node 32 (blade 2, node 3), m
         96    1.620E+02                                 F               0         Z-component position of node 32 (blade 2, node 3), m
         97    1.886E+01                                 F               0         X-component position of node 33 (blade 2, node 4), m
         98   -3.170E+01                                 F               0         Y-component position of node 33 (blade 2, node 4), m
         99    1.639E+02                                 F               0         Z-component position of node 33 (blade 2, node 4), m
        100    1.933E+01                                 F               0         X-component position of node 34 (blade 2, node 5), m
        101   -3.503E+01                                 F               0         Y-component position of node 34 (blade 2, node 5), m
        102    1.658E+02                                 F               0         Z-component position of node 34 (blade 2, node 5), m
        103    1.980E+01                                 F               0         X-component position of node 35 (blade 2, node 6), m
        104   -3.837E+01                                 F               0         Y-component position of node 35 (blade 2, node 6), m
        105    1.677E+02                                 F               0         Z-component position of node 35 (blade 2, node 6), m
        106    2.028E+01                                 F               0         X-component position of node 36 (blade 2, node 7), m
        107   -4.170E+01                                 F               0         Y-component position of node 36 (blade 2, node 7), m
        108    1.696E+02                                 F               0         Z-component position of node 36 (blade 2, node 7), m
        109    2.075E+01                                 F               0         X-component position of node 37 (blade 2, node 8), m
        110   -4.503E+01                                 F               0         Y-component position of node 37 (blade 2, node 8), m
        111    1.715E+02                                 F               0         Z-component position of node 37 (blade 2, node 8), m
        112    2.122E+01                                 F               0         X-component position of node 38 (blade 2, node 9), m
        113   -4.837E+01                                 F               0         Y-component position of node 38 (blade 2, node 9), m
        114    1.734E+02                                 F               0         Z-component position of node 38 (blade 2, node 9), m
        115    2.169E+01                                 F               0         X-component position of node 39 (blade 2, node 10), m
        116   -5.170E+01                                 F               0         Y-component position of node 39 (blade 2, node 10), m
        117    1.753E+02                                 F               0         Z-component position of node 39 (blade 2, node 10), m
        118    2.217E+01                                 F               0         X-component position of node 40 (blade 2, node 11), m
        119   -5.503E+01                                 F               0         Y-component position of node 40 (blade 2, node 11), m
        120    1.772E+02                                 F               0         Z-component position of node 40 (blade 2, node 11), m
        121    2.264E+01                                 F               0         X-component position of node 41 (blade 2, node 12), m
        122   -5.837E+01                                 F               0         Y-component position of node 41 (blade 2, node 12), m
        123    1.791E+02                                 F               0         Z-component position of node 41 (blade 2, node 12), m
        124    2.311E+01                                 F               0         X-component position of node 42 (blade 2, node 13), m
        125   -6.170E+01                                 F               0         Y-component position of node 42 (blade 2, node 13), m
        126    1.810E+02                                 F               0         Z-component position of node 42 (blade 2, node 13), m
        127    2.358E+01                                 F               0         X-component position of node 43 (blade 2, node 14), m
        128   -6.504E+01                                 F               0         Y-component position of node 43 (blade 2, node 14), m
        129    1.829E+02                                 F               0         Z-component position of node 43 (blade 2, node 14), m
        130    2.406E+01                                 F               0         X-component position of node 44 (blade 2, node 15), m
        131   -6.837E+01                                 F               0         Y-component position of node 44 (blade 2, node 15), m
        132    1.849E+02                                 F               0         Z-component position of node 44 (blade 2, node 15), m
        133    2.453E+01                                 F               0         X-component position of node 45 (blade 2, node 16), m
        134   -7.170E+01                                 F               0         Y-component position of node 45 (blade 2, node 16), m
        135    1.868E+02                                 F               0         Z-component position of node 45 (blade 2, node 16), m
        136    2.500E+01                                 F               0         X-component position of node 46 (blade 2, node 17), m
        137   -7.504E+01                                 F               0         Y-component position of node 46 (blade 2, node 17), m
        138    1.887E+02                                 F               0         Z-component position of node 46 (blade 2, node 17), m
        139    2.547E+01                                 F               0         X-component position of node 47 (blade 2, node 18), m
        140   -7.837E+01                                 F               0         Y-component position of node 47 (blade 2, node 18), m
        141    1.906E+02                                 F               0         Z-component position of node 47 (blade 2, node 18), m
        142    2.595E+01                                 F               0         X-component position of node 48 (blade 2, node 19), m
        143   -8.171E+01                                 F               0         Y-component position of node 48 (blade 2, node 19), m
        144    1.925E+02                                 F               0         Z-component position of node 48 (blade 2, node 19), m
        145    2.642E+01                                 F               0         X-component position of node 49 (blade 2, node 20), m
        146   -8.504E+01                                 F               0         Y-component position of node 49 (blade 2, node 20), m
        147    1.944E+02                                 F               0         Z-component position of node 49 (blade 2, node 20), m
        148    2.689E+01                                 F               0         X-component position of node 50 (blade 2, node 21), m
        149   -8.837E+01                                 F               0         Y-component position of node 50 (blade 2, node 21), m
        150    1.963E+02                                 F               0         Z-component position of node 50 (blade 2, node 21), m
        151    2.736E+01                                 F               0         X-component position of node 51 (blade 2, node 22), m
        152   -9.171E+01                                 F               0         Y-component position of node 51 (blade 2, node 22), m
        153    1.982E+02                                 F               0         Z-component position of node 51 (blade 2, node 22), m
        154    2.784E+01                                 F               0         X-component position of node 52 (blade 2, node 23), m
        155   -9.504E+01                                 F               0         Y-component position of node 52 (blade 2, node 23), m
        156    2.001E+02                                 F               0         Z-component position of node 52 (blade 2, node 23), m
        157    2.831E+01                                 F               0         X-component position of node 53 (blade 2, node 24), m
        158   -9.837E+01                                 F               0         Y-component position of node 53 (blade 2, node 24), m
        159    2.020E+02                                 F               0         Z-component position of node 53 (blade 2, node 24), m
        160    2.878E+01                                 F               0         X-component position of node 54 (blade 2, node 25), m
        161   -1.017E+02                                 F               0         Y-component position of node 54 (blade 2, node 25), m
        162    2.039E+02                                 F               0         Z-component position of node 54 (blade 2, node 25), m
        163    2.925E+01                                 F               0         X-component position of node 55 (blade 2, node 26), m
        164   -1.050E+02                                 F               0         Y-component position of node 55 (blade 2, node 26), m
        165    2.058E+02                                 F               0         Z-component position of node 55 (blade 2, node 26), m
        166    2.973E+01                                 F               0         X-component position of node 56 (blade 2, node 27), m
        167   -1.084E+02                                 F               0         Y-component position of node 56 (blade 2, node 27), m
        168    2.077E+02                                 F               0         Z-component position of node 56 (blade 2, node 27), m
        169    3.013E+01                                 F               0         X-component position of node 57 (blade 2, node 28), m
        170   -1.112E+02                                 F               0         Y-component position of node 57 (blade 2, node 28), m
        171    2.093E+02                                 F               0         Z-component position of node 57 (blade 2, node 28), m
        172    1.412E+01                                 F               0         X-component position of node 58 (blade 3, node 1), m
        173   -6.836E+00                                 F               0         Y-component position of node 58 (blade 3, node 1), m
        174    1.443E+02                                 F               0         Z-component position of node 58 (blade 3, node 1), m
        175    1.383E+01                                 F               0         X-component position of node 59 (blade 3, node 2), m
        176   -6.847E+00                                 F               0         Y-component position of node 59 (blade 3, node 2), m
        177    1.430E+02                                 F               0         Z-component position of node 59 (blade 3, node 2), m
        178    9.883E+00                                 F               0         X-component position of node 60 (blade 3, node 3), m
        179   -6.991E+00                                 F               0         Y-component position of node 60 (blade 3, node 3), m
        180    1.253E+02                                 F               0         Z-component position of node 60 (blade 3, node 3), m
        181    9.042E+00                                 F               0         X-component position of node 61 (blade 3, node 4), m
        182   -7.021E+00                                 F               0         Y-component position of node 61 (blade 3, node 4), m
        183    1.215E+02                                 F               0         Z-component position of node 61 (blade 3, node 4), m
        184    8.200E+00                                 F               0         X-component position of node 62 (blade 3, node 5), m
        185   -7.052E+00                                 F               0         Y-component position of node 62 (blade 3, node 5), m
        186    1.177E+02                                 F               0         Z-component position of node 62 (blade 3, node 5), m
        187    7.359E+00                                 F               0         X-component position of node 63 (blade 3, node 6), m
        188   -7.083E+00                                 F               0         Y-component position of node 63 (blade 3, node 6), m
        189    1.139E+02                                 F               0         Z-component position of node 63 (blade 3, node 6), m
        190    6.517E+00                                 F               0         X-component position of node 64 (blade 3, node 7), m
        191   -7.113E+00                                 F               0         Y-component position of node 64 (blade 3, node 7), m
        192    1.102E+02                                 F               0         Z-component position of node 64 (blade 3, node 7), m
        193    5.676E+00                                 F               0         X-component position of node 65 (blade 3, node 8), m
        194   -7.144E+00                                 F               0         Y-component position of node 65 (blade 3, node 8), m
        195    1.064E+02                                 F               0         Z-component position of node 65 (blade 3, node 8), m
        196    4.834E+00                                 F               0         X-component position of node 66 (blade 3, node 9), m
        197   -7.175E+00                                 F               0         Y-component position of node 66 (blade 3, node 9), m
        198    1.026E+02                                 F               0         Z-component position of node 66 (blade 3, node 9), m
        199    3.993E+00                                 F               0         X-component position of node 67 (blade 3, node 10), m
        200   -7.205E+00                                 F               0         Y-component position of node 67 (blade 3, node 10), m
        201    9.885E+01                                 F               0         Z-component position of node 67 (blade 3, node 10), m
        202    3.152E+00                                 F               0         X-component position of node 68 (blade 3, node 11), m
        203   -7.236E+00                                 F               0         Y-component position of node 68 (blade 3, node 11), m
        204    9.507E+01                                 F               0         Z-component position of node 68 (blade 3, node 11), m
        205    2.310E+00                                 F               0         X-component position of node 69 (blade 3, node 12), m
        206   -7.267E+00                                 F               0         Y-component position of node 69 (blade 3, node 12), m
        207    9.130E+01                                 F               0         Z-component position of node 69 (blade 3, node 12), m
        208    1.469E+00                                 F               0         X-component position of node 70 (blade 3, node 13), m
        209   -7.297E+00                                 F               0         Y-component position of node 70 (blade 3, node 13), m
        210    8.752E+01                                 F               0         Z-component position of node 70 (blade 3, node 13), m
        211    6.272E-01                                 F               0         X-component position of node 71 (blade 3, node 14), m