
Linearized model: Predictions were generated on 12-Feb-2024 at 18:31:58 using OpenFAST, compiled as a 64-bit application using single precision at commit v3.5.1
 linked with  NWTC Subroutine Library; ElastoDyn; InflowWind; AeroDyn; ServoDyn; HydroDyn; MAP++ (<1.20.10>, <Oct-20-2023>)

Description from the FAST input file: CCT-9 Campign 4 model. Input files to be run with OpenFAST 3.5.0. GitHub branch from Lu Wang (https://github.com/luwang00/openfast/tree/dev) compiled on March 7, 2023.

Simulation information:
   Simulation time:                  1001.7500 s
   Rotor Speed:                         1.0461 rad/s
   Azimuth:                             1.4977 rad
   Wind Speed:                         12.0000 m/s
   Number of continuous states:         0
   Number of discrete states:           0
   Number of constraint states:         0
   Number of inputs:                  303
   Number of outputs:                   1
   Jacobians included in this file?    No

Order of inputs:
     Column   Operating Point                     Rotating Frame? Derivative Order Description
   ---------- ---------------                     --------------- ---------------- -----------
          1   -1.080E+01                                 F               0         X-component position of node 1 (hub), m
          2    0.000E+00                                 F               0         Y-component position of node 1 (hub), m
          3    1.497E+02                                 F               0         Z-component position of node 1 (hub), m
          4    2.447E+01                                 F               0         X-component position of node 2 (blade 1, node 1), m
          5   -1.267E+01                                 F               0         Y-component position of node 2 (blade 1, node 1), m
          6    1.494E+02                                 F               0         Z-component position of node 2 (blade 1, node 1), m
          7    2.450E+01                                 F               0         X-component position of node 3 (blade 1, node 2), m
          8   -1.400E+01                                 F               0         Y-component position of node 3 (blade 1, node 2), m
          9    1.494E+02                                 F               0         Z-component position of node 3 (blade 1, node 2), m
         10    2.498E+01                                 F               0         X-component position of node 4 (blade 1, node 3), m
         11   -3.214E+01                                 F               0         Y-component position of node 4 (blade 1, node 3), m
         12    1.498E+02                                 F               0         Z-component position of node 4 (blade 1, node 3), m
         13    2.508E+01                                 F               0         X-component position of node 5 (blade 1, node 4), m
         14   -3.601E+01                                 F               0         Y-component position of node 5 (blade 1, node 4), m
         15    1.499E+02                                 F               0         Z-component position of node 5 (blade 1, node 4), m
         16    2.518E+01                                 F               0         X-component position of node 6 (blade 1, node 5), m
         17   -3.988E+01                                 F               0         Y-component position of node 6 (blade 1, node 5), m
         18    1.500E+02                                 F               0         Z-component position of node 6 (blade 1, node 5), m
         19    2.528E+01                                 F               0         X-component position of node 7 (blade 1, node 6), m
         20   -4.374E+01                                 F               0         Y-component position of node 7 (blade 1, node 6), m
         21    1.501E+02                                 F               0         Z-component position of node 7 (blade 1, node 6), m
         22    2.538E+01                                 F               0         X-component position of node 8 (blade 1, node 7), m
         23   -4.761E+01                                 F               0         Y-component position of node 8 (blade 1, node 7), m
         24    1.502E+02                                 F               0         Z-component position of node 8 (blade 1, node 7), m
         25    2.548E+01                                 F               0         X-component position of node 9 (blade 1, node 8), m
         26   -5.147E+01                                 F               0         Y-component position of node 9 (blade 1, node 8), m
         27    1.503E+02                                 F               0         Z-component position of node 9 (blade 1, node 8), m
         28    2.558E+01                                 F               0         X-component position of node 10 (blade 1, node 9), m
         29   -5.534E+01                                 F               0         Y-component position of node 10 (blade 1, node 9), m
         30    1.504E+02                                 F               0         Z-component position of node 10 (blade 1, node 9), m
         31    2.568E+01                                 F               0         X-component position of node 11 (blade 1, node 10), m
         32   -5.920E+01                                 F               0         Y-component position of node 11 (blade 1, node 10), m
         33    1.505E+02                                 F               0         Z-component position of node 11 (blade 1, node 10), m
         34    2.579E+01                                 F               0         X-component position of node 12 (blade 1, node 11), m
         35   -6.307E+01                                 F               0         Y-component position of node 12 (blade 1, node 11), m
         36    1.506E+02                                 F               0         Z-component position of node 12 (blade 1, node 11), m
         37    2.589E+01                                 F               0         X-component position of node 13 (blade 1, node 12), m
         38   -6.693E+01                                 F               0         Y-component position of node 13 (blade 1, node 12), m
         39    1.507E+02                                 F               0         Z-component position of node 13 (blade 1, node 12), m
         40    2.599E+01                                 F               0         X-component position of node 14 (blade 1, node 13), m
         41   -7.080E+01                                 F               0         Y-component position of node 14 (blade 1, node 13), m
         42    1.508E+02                                 F               0         Z-component position of node 14 (blade 1, node 13), m
         43    2.609E+01                                 F               0         X-component position of node 15 (blade 1, node 14), m
         44   -7.466E+01                                 F               0         Y-component position of node 15 (blade 1, node 14), m
         45    1.509E+02                                 F               0         Z-component position of node 15 (blade 1, node 14), m
         46    2.619E+01                                 F               0         X-component position of node 16 (blade 1, node 15), m
         47   -7.853E+01                                 F               0         Y-component position of node 16 (blade 1, node 15), m
         48    1.510E+02                                 F               0         Z-component position of node 16 (blade 1, node 15), m
         49    2.629E+01                                 F               0         X-component position of node 17 (blade 1, node 16), m
         50   -8.239E+01                                 F               0         Y-component position of node 17 (blade 1, node 16), m
         51    1.511E+02                                 F               0         Z-component position of node 17 (blade 1, node 16), m
         52    2.639E+01                                 F               0         X-component position of node 18 (blade 1, node 17), m
         53   -8.626E+01                                 F               0         Y-component position of node 18 (blade 1, node 17), m
         54    1.511E+02                                 F               0         Z-component position of node 18 (blade 1, node 17), m
         55    2.649E+01                                 F               0         X-component position of node 19 (blade 1, node 18), m
         56   -9.012E+01                                 F               0         Y-component position of node 19 (blade 1, node 18), m
         57    1.512E+02                                 F               0         Z-component position of node 19 (blade 1, node 18), m
         58    2.659E+01                                 F               0         X-component position of node 20 (blade 1, node 19), m
         59   -9.399E+01                                 F               0         Y-component position of node 20 (blade 1, node 19), m
         60    1.513E+02                                 F               0         Z-component position of node 20 (blade 1, node 19), m
         61    2.670E+01                                 F               0         X-component position of node 21 (blade 1, node 20), m
         62   -9.785E+01                                 F               0         Y-component position of node 21 (blade 1, node 20), m
         63    1.514E+02                                 F               0         Z-component position of node 21 (blade 1, node 20), m
         64    2.680E+01                                 F               0         X-component position of node 22 (blade 1, node 21), m
         65   -1.017E+02                                 F               0         Y-component position of node 22 (blade 1, node 21), m
         66    1.515E+02                                 F               0         Z-component position of node 22 (blade 1, node 21), m
         67    2.690E+01                                 F               0         X-component position of node 23 (blade 1, node 22), m
         68   -1.056E+02                                 F               0         Y-component position of node 23 (blade 1, node 22), m
         69    1.516E+02                                 F               0         Z-component position of node 23 (blade 1, node 22), m
         70    2.700E+01                                 F               0         X-component position of node 24 (blade 1, node 23), m
         71   -1.094E+02                                 F               0         Y-component position of node 24 (blade 1, node 23), m
         72    1.517E+02                                 F               0         Z-component position of node 24 (blade 1, node 23), m
         73    2.710E+01                                 F               0         X-component position of node 25 (blade 1, node 24), m
         74   -1.133E+02                                 F               0         Y-component position of node 25 (blade 1, node 24), m
         75    1.518E+02                                 F               0         Z-component position of node 25 (blade 1, node 24), m
         76    2.720E+01                                 F               0         X-component position of node 26 (blade 1, node 25), m
         77   -1.172E+02                                 F               0         Y-component position of node 26 (blade 1, node 25), m
         78    1.519E+02                                 F               0         Z-component position of node 26 (blade 1, node 25), m
         79    2.730E+01                                 F               0         X-component position of node 27 (blade 1, node 26), m
         80   -1.210E+02                                 F               0         Y-component position of node 27 (blade 1, node 26), m
         81    1.520E+02                                 F               0         Z-component position of node 27 (blade 1, node 26), m
         82    2.740E+01                                 F               0         X-component position of node 28 (blade 1, node 27), m
         83   -1.249E+02                                 F               0         Y-component position of node 28 (blade 1, node 27), m
         84    1.521E+02                                 F               0         Z-component position of node 28 (blade 1, node 27), m
         85    2.749E+01                                 F               0         X-component position of node 29 (blade 1, node 28), m
         86   -1.282E+02                                 F               0         Y-component position of node 29 (blade 1, node 28), m
         87    1.522E+02                                 F               0         Z-component position of node 29 (blade 1, node 28), m
         88    2.304E+01                                 F               0         X-component position of node 30 (blade 2, node 1), m
         89   -4.508E+00                                 F               0         Y-component position of node 30 (blade 2, node 1), m
         90    1.445E+02                                 F               0         Z-component position of node 30 (blade 2, node 1), m
         91    2.273E+01                                 F               0         X-component position of node 31 (blade 2, node 2), m
         92   -3.875E+00                                 F               0         Y-component position of node 31 (blade 2, node 2), m
         93    1.434E+02                                 F               0         Z-component position of node 31 (blade 2, node 2), m
         94    1.853E+01                                 F               0         X-component position of node 32 (blade 2, node 3), m
         95    4.727E+00                                 F               0         Y-component position of node 32 (blade 2, node 3), m
         96    1.280E+02                                 F               0         Z-component position of node 32 (blade 2, node 3), m
         97    1.764E+01                                 F               0         X-component position of node 33 (blade 2, node 4), m
         98    6.559E+00                                 F               0         Y-component position of node 33 (blade 2, node 4), m
         99    1.247E+02                                 F               0         Z-component position of node 33 (blade 2, node 4), m
        100    1.674E+01                                 F               0         X-component position of node 34 (blade 2, node 5), m
        101    8.392E+00                                 F               0         Y-component position of node 34 (blade 2, node 5), m
        102    1.214E+02                                 F               0         Z-component position of node 34 (blade 2, node 5), m
        103    1.585E+01                                 F               0         X-component position of node 35 (blade 2, node 6), m
        104    1.022E+01                                 F               0         Y-component position of node 35 (blade 2, node 6), m
        105    1.181E+02                                 F               0         Z-component position of node 35 (blade 2, node 6), m
        106    1.495E+01                                 F               0         X-component position of node 36 (blade 2, node 7), m
        107    1.206E+01                                 F               0         Y-component position of node 36 (blade 2, node 7), m
        108    1.148E+02                                 F               0         Z-component position of node 36 (blade 2, node 7), m
        109    1.406E+01                                 F               0         X-component position of node 37 (blade 2, node 8), m
        110    1.389E+01                                 F               0         Y-component position of node 37 (blade 2, node 8), m
        111    1.116E+02                                 F               0         Z-component position of node 37 (blade 2, node 8), m
        112    1.316E+01                                 F               0         X-component position of node 38 (blade 2, node 9), m
        113    1.572E+01                                 F               0         Y-component position of node 38 (blade 2, node 9), m
        114    1.083E+02                                 F               0         Z-component position of node 38 (blade 2, node 9), m
        115    1.227E+01                                 F               0         X-component position of node 39 (blade 2, node 10), m
        116    1.756E+01                                 F               0         Y-component position of node 39 (blade 2, node 10), m
        117    1.050E+02                                 F               0         Z-component position of node 39 (blade 2, node 10), m
        118    1.137E+01                                 F               0         X-component position of node 40 (blade 2, node 11), m
        119    1.939E+01                                 F               0         Y-component position of node 40 (blade 2, node 11), m
        120    1.017E+02                                 F               0         Z-component position of node 40 (blade 2, node 11), m
        121    1.048E+01                                 F               0         X-component position of node 41 (blade 2, node 12), m
        122    2.122E+01                                 F               0         Y-component position of node 41 (blade 2, node 12), m
        123    9.841E+01                                 F               0         Z-component position of node 41 (blade 2, node 12), m
        124    9.581E+00                                 F               0         X-component position of node 42 (blade 2, node 13), m
        125    2.305E+01                                 F               0         Y-component position of node 42 (blade 2, node 13), m
        126    9.512E+01                                 F               0         Z-component position of node 42 (blade 2, node 13), m
        127    8.686E+00                                 F               0         X-component position of node 43 (blade 2, node 14), m
        128    2.489E+01                                 F               0         Y-component position of node 43 (blade 2, node 14), m
        129    9.183E+01                                 F               0         Z-component position of node 43 (blade 2, node 14), m
        130    7.791E+00                                 F               0         X-component position of node 44 (blade 2, node 15), m
        131    2.672E+01                                 F               0         Y-component position of node 44 (blade 2, node 15), m
        132    8.855E+01                                 F               0         Z-component position of node 44 (blade 2, node 15), m
        133    6.896E+00                                 F               0         X-component position of node 45 (blade 2, node 16), m
        134    2.855E+01                                 F               0         Y-component position of node 45 (blade 2, node 16), m
        135    8.526E+01                                 F               0         Z-component position of node 45 (blade 2, node 16), m
        136    6.001E+00                                 F               0         X-component position of node 46 (blade 2, node 17), m
        137    3.039E+01                                 F               0         Y-component position of node 46 (blade 2, node 17), m
        138    8.198E+01                                 F               0         Z-component position of node 46 (blade 2, node 17), m
        139    5.106E+00                                 F               0         X-component position of node 47 (blade 2, node 18), m
        140    3.222E+01                                 F               0         Y-component position of node 47 (blade 2, node 18), m
        141    7.869E+01                                 F               0         Z-component position of node 47 (blade 2, node 18), m
        142    4.211E+00                                 F               0         X-component position of node 48 (blade 2, node 19), m
        143    3.405E+01                                 F               0         Y-component position of node 48 (blade 2, node 19), m
        144    7.540E+01                                 F               0         Z-component position of node 48 (blade 2, node 19), m
        145    3.316E+00                                 F               0         X-component position of node 49 (blade 2, node 20), m
        146    3.588E+01                                 F               0         Y-component position of node 49 (blade 2, node 20), m
        147    7.212E+01                                 F               0         Z-component position of node 49 (blade 2, node 20), m
        148    2.421E+00                                 F               0         X-component position of node 50 (blade 2, node 21), m
        149    3.772E+01                                 F               0         Y-component position of node 50 (blade 2, node 21), m
        150    6.883E+01                                 F               0         Z-component position of node 50 (blade 2, node 21), m
        151    1.526E+00                                 F               0         X-component position of node 51 (blade 2, node 22), m
        152    3.955E+01                                 F               0         Y-component position of node 51 (blade 2, node 22), m
        153    6.554E+01                                 F               0         Z-component position of node 51 (blade 2, node 22), m
        154    6.315E-01                                 F               0         X-component position of node 52 (blade 2, node 23), m
        155    4.138E+01                                 F               0         Y-component position of node 52 (blade 2, node 23), m
        156    6.226E+01                                 F               0         Z-component position of node 52 (blade 2, node 23), m
        157   -2.634E-01                                 F               0         X-component position of node 53 (blade 2, node 24), m
        158    4.321E+01                                 F               0         Y-component position of node 53 (blade 2, node 24), m
        159    5.897E+01                                 F               0         Z-component position of node 53 (blade 2, node 24), m
        160   -1.158E+00                                 F               0         X-component position of node 54 (blade 2, node 25), m
        161    4.505E+01                                 F               0         Y-component position of node 54 (blade 2, node 25), m
        162    5.569E+01                                 F               0         Z-component position of node 54 (blade 2, node 25), m
        163   -2.053E+00                                 F               0         X-component position of node 55 (blade 2, node 26), m
        164    4.688E+01                                 F               0         Y-component position of node 55 (blade 2, node 26), m
        165    5.240E+01                                 F               0         Z-component position of node 55 (blade 2, node 26), m
        166   -2.948E+00                                 F               0         X-component position of node 56 (blade 2, node 27), m
        167    4.871E+01                                 F               0         Y-component position of node 56 (blade 2, node 27), m
        168    4.911E+01                                 F               0         Z-component position of node 56 (blade 2, node 27), m
        169   -3.707E+00                                 F               0         X-component position of node 57 (blade 2, node 28), m
        170    5.027E+01                                 F               0         Y-component position of node 57 (blade 2, node 28), m
        171    4.633E+01                                 F               0         Z-component position of node 57 (blade 2, node 28), m
        172    2.546E+01                                 F               0         X-component position of node 58 (blade 3, node 1), m
        173   -4.221E+00                                 F               0         Y-component position of node 58 (blade 3, node 1), m
        174    1.538E+02                                 F               0         Z-component position of node 58 (blade 3, node 1), m
        175    2.573E+01                                 F               0         X-component position of node 59 (blade 3, node 2), m
        176   -3.520E+00                                 F               0         Y-component position of node 59 (blade 3, node 2), m
        177    1.549E+02                                 F               0         Z-component position of node 59 (blade 3, node 2), m
        178    2.946E+01                                 F               0         X-component position of node 60 (blade 3, node 3), m
        179    6.019E+00                                 F               0         Y-component position of node 60 (blade 3, node 3), m
        180    1.699E+02                                 F               0         Z-component position of node 60 (blade 3, node 3), m
        181    3.025E+01                                 F               0         X-component position of node 61 (blade 3, node 4), m
        182    8.052E+00                                 F               0         Y-component position of node 61 (blade 3, node 4), m
        183    1.731E+02                                 F               0         Z-component position of node 61 (blade 3, node 4), m
        184    3.104E+01                                 F               0         X-component position of node 62 (blade 3, node 5), m
        185    1.008E+01                                 F               0         Y-component position of node 62 (blade 3, node 5), m
        186    1.763E+02                                 F               0         Z-component position of node 62 (blade 3, node 5), m
        187    3.184E+01                                 F               0         X-component position of node 63 (blade 3, node 6), m
        188    1.212E+01                                 F               0         Y-component position of node 63 (blade 3, node 6), m
        189    1.795E+02                                 F               0         Z-component position of node 63 (blade 3, node 6), m
        190    3.263E+01                                 F               0         X-component position of node 64 (blade 3, node 7), m
        191    1.415E+01                                 F               0         Y-component position of node 64 (blade 3, node 7), m
        192    1.827E+02                                 F               0         Z-component position of node 64 (blade 3, node 7), m
        193    3.343E+01                                 F               0         X-component position of node 65 (blade 3, node 8), m
        194    1.618E+01                                 F               0         Y-component position of node 65 (blade 3, node 8), m
        195    1.859E+02                                 F               0         Z-component position of node 65 (blade 3, node 8), m
        196    3.422E+01                                 F               0         X-component position of node 66 (blade 3, node 9), m
        197    1.821E+01                                 F               0         Y-component position of node 66 (blade 3, node 9), m
        198    1.891E+02                                 F               0         Z-component position of node 66 (blade 3, node 9), m
        199    3.501E+01                                 F               0         X-component position of node 67 (blade 3, node 10), m
        200    2.025E+01                                 F               0         Y-component position of node 67 (blade 3, node 10), m
        201    1.923E+02                                 F               0         Z-component position of node 67 (blade 3, node 10), m
        202    3.581E+01                                 F               0         X-component position of node 68 (blade 3, node 11), m
        203    2.228E+01                                 F               0         Y-component position of node 68 (blade 3, node 11), m
        204    1.955E+02                                 F               0         Z-component position of node 68 (blade 3, node 11), m
        205    3.660E+01                                 F               0         X-component position of node 69 (blade 3, node 12), m
        206    2.431E+01                                 F               0         Y-component position of node 69 (blade 3, node 12), m
        207    1.987E+02                                 F               0         Z-component position of node 69 (blade 3, node 12), m
        208    3.739E+01                                 F               0         X-component position of node 70 (blade 3, node 13), m
        209    2.634E+01                                 F               0         Y-component position of node 70 (blade 3, node 13), m
        210    2.018E+02                                 F               0         Z-component position of node 70 (blade 3, node 13), m
        211    3.819E+01                                 F               0         X-component position of node 71 (blade 3, node 14), m