
Linearized model: Predictions were generated on 12-Feb-2024 at 18:31:58 using OpenFAST, compiled as a 64-bit application using single precision at commit v3.5.1
 linked with  NWTC Subroutine Library; ElastoDyn; InflowWind; AeroDyn; ServoDyn; HydroDyn; MAP++ (<1.20.10>, <Oct-20-2023>)

Description from the FAST input file: CCT-9 Campign 4 model. Input files to be run with OpenFAST 3.5.0. GitHub branch from Lu Wang (https://github.com/luwang00/openfast/tree/dev) compiled on March 7, 2023.

Simulation information:
   Simulation time:                  1007.4750 s
   Rotor Speed:                         1.0471 rad/s
   Azimuth:                             1.2074 rad
   Wind Speed:                         12.0000 m/s
   Number of continuous states:         0
   Number of discrete states:           0
   Number of constraint states:         0
   Number of inputs:                 1746
   Number of outputs:                   4
   Jacobians included in this file?    No

Order of inputs:
     Column   Operating Point                     Rotating Frame? Derivative Order Description
   ---------- ---------------                     --------------- ---------------- -----------
          1    1.518E+01                                 F               0         Tower X translation displacement, node 1, m
          2   -1.033E+00                                 F               0         Tower Y translation displacement, node 1, m
          3   -4.601E-01                                 F               0         Tower Z translation displacement, node 1, m
          4    1.704E+01                                 F               0         Tower X translation displacement, node 2, m
          5   -1.576E+00                                 F               0         Tower Y translation displacement, node 2, m
          6   -6.131E-01                                 F               0         Tower Z translation displacement, node 2, m
          7    1.890E+01                                 F               0         Tower X translation displacement, node 3, m
          8   -2.118E+00                                 F               0         Tower Y translation displacement, node 3, m
          9   -7.662E-01                                 F               0         Tower Z translation displacement, node 3, m
         10    2.076E+01                                 F               0         Tower X translation displacement, node 4, m
         11   -2.661E+00                                 F               0         Tower Y translation displacement, node 4, m
         12   -9.192E-01                                 F               0         Tower Z translation displacement, node 4, m
         13    2.262E+01                                 F               0         Tower X translation displacement, node 5, m
         14   -3.203E+00                                 F               0         Tower Y translation displacement, node 5, m
         15   -1.072E+00                                 F               0         Tower Z translation displacement, node 5, m
         16    2.449E+01                                 F               0         Tower X translation displacement, node 6, m
         17   -3.746E+00                                 F               0         Tower Y translation displacement, node 6, m
         18   -1.225E+00                                 F               0         Tower Z translation displacement, node 6, m
         19    2.635E+01                                 F               0         Tower X translation displacement, node 7, m
         20   -4.288E+00                                 F               0         Tower Y translation displacement, node 7, m
         21   -1.378E+00                                 F               0         Tower Z translation displacement, node 7, m
         22    2.821E+01                                 F               0         Tower X translation displacement, node 8, m
         23   -4.831E+00                                 F               0         Tower Y translation displacement, node 8, m
         24   -1.531E+00                                 F               0         Tower Z translation displacement, node 8, m
         25    3.007E+01                                 F               0         Tower X translation displacement, node 9, m
         26   -5.373E+00                                 F               0         Tower Y translation displacement, node 9, m
         27   -1.684E+00                                 F               0         Tower Z translation displacement, node 9, m
         28    3.193E+01                                 F               0         Tower X translation displacement, node 10, m
         29   -5.916E+00                                 F               0         Tower Y translation displacement, node 10, m
         30   -1.837E+00                                 F               0         Tower Z translation displacement, node 10, m
         31    3.379E+01                                 F               0         Tower X translation displacement, node 11, m
         32   -6.458E+00                                 F               0         Tower Y translation displacement, node 11, m
         33   -1.990E+00                                 F               0         Tower Z translation displacement, node 11, m
         34    9.886E-01,  1.540E-02, -1.501E-01         F               0         Tower X orientation angle, node 1, rad
         35   -8.621E-03,  9.989E-01,  4.573E-02         F               0         Tower Y orientation angle, node 1, rad
         36    1.506E-01, -4.391E-02,  9.876E-01         F               0         Tower Z orientation angle, node 1, rad
         37    9.886E-01,  1.540E-02, -1.501E-01         F               0         Tower X orientation angle, node 2, rad
         38   -8.621E-03,  9.989E-01,  4.573E-02         F               0         Tower Y orientation angle, node 2, rad
         39    1.506E-01, -4.391E-02,  9.876E-01         F               0         Tower Z orientation angle, node 2, rad
         40    9.886E-01,  1.540E-02, -1.501E-01         F               0         Tower X orientation angle, node 3, rad
         41   -8.621E-03,  9.989E-01,  4.573E-02         F               0         Tower Y orientation angle, node 3, rad
         42    1.506E-01, -4.391E-02,  9.876E-01         F               0         Tower Z orientation angle, node 3, rad
         43    9.886E-01,  1.540E-02, -1.501E-01         F               0         Tower X orientation angle, node 4, rad
         44   -8.621E-03,  9.989E-01,  4.573E-02         F               0         Tower Y orientation angle, node 4, rad
         45    1.506E-01, -4.391E-02,  9.876E-01         F               0         Tower Z orientation angle, node 4, rad
         46    9.886E-01,  1.540E-02, -1.501E-01         F               0         Tower X orientation angle, node 5, rad
         47   -8.621E-03,  9.989E-01,  4.573E-02         F               0         Tower Y orientation angle, node 5, rad
         48    1.506E-01, -4.391E-02,  9.876E-01         F               0         Tower Z orientation angle, node 5, rad
         49    9.886E-01,  1.540E-02, -1.501E-01         F               0         Tower X orientation angle, node 6, rad
         50   -8.621E-03,  9.989E-01,  4.573E-02         F               0         Tower Y orientation angle, node 6, rad
         51    1.506E-01, -4.391E-02,  9.876E-01         F               0         Tower Z orientation angle, node 6, rad
         52    9.886E-01,  1.540E-02, -1.501E-01         F               0         Tower X orientation angle, node 7, rad
         53   -8.621E-03,  9.989E-01,  4.573E-02         F               0         Tower Y orientation angle, node 7, rad
         54    1.506E-01, -4.391E-02,  9.876E-01         F               0         Tower Z orientation angle, node 7, rad
         55    9.886E-01,  1.540E-02, -1.501E-01         F               0         Tower X orientation angle, node 8, rad
         56   -8.621E-03,  9.989E-01,  4.573E-02         F               0         Tower Y orientation angle, node 8, rad
         57    1.506E-01, -4.391E-02,  9.876E-01         F               0         Tower Z orientation angle, node 8, rad
         58    9.886E-01,  1.540E-02, -1.501E-01         F               0         Tower X orientation angle, node 9, rad
         59   -8.621E-03,  9.989E-01,  4.573E-02         F               0         Tower Y orientation angle, node 9, rad
         60    1.506E-01, -4.391E-02,  9.876E-01         F               0         Tower Z orientation angle, node 9, rad
         61    9.886E-01,  1.540E-02, -1.501E-01         F               0         Tower X orientation angle, node 10, rad
         62   -8.621E-03,  9.989E-01,  4.573E-02         F               0         Tower Y orientation angle, node 10, rad
         63    1.506E-01, -4.391E-02,  9.876E-01         F               0         Tower Z orientation angle, node 10, rad
         64    9.886E-01,  1.540E-02, -1.501E-01         F               0         Tower X orientation angle, node 11, rad
         65   -8.621E-03,  9.989E-01,  4.573E-02         F               0         Tower Y orientation angle, node 11, rad
         66    1.506E-01, -4.391E-02,  9.876E-01         F               0         Tower Z orientation angle, node 11, rad
         67    3.267E-04                                 F               0         Tower X translation velocity, node 1, m/s
         68    1.391E-02                                 F               0         Tower Y translation velocity, node 1, m/s
         69    5.639E-03                                 F               0         Tower Z translation velocity, node 1, m/s
         70    2.232E-04                                 F               0         Tower X translation velocity, node 2, m/s
         71    2.238E-02                                 F               0         Tower Y translation velocity, node 2, m/s
         72    6.031E-03                                 F               0         Tower Z translation velocity, node 2, m/s
         73    1.196E-04                                 F               0         Tower X translation velocity, node 3, m/s
         74    3.085E-02                                 F               0         Tower Y translation velocity, node 3, m/s
         75    6.423E-03                                 F               0         Tower Z translation velocity, node 3, m/s
         76    1.609E-05                                 F               0         Tower X translation velocity, node 4, m/s
         77    3.932E-02                                 F               0         Tower Y translation velocity, node 4, m/s
         78    6.816E-03                                 F               0         Tower Z translation velocity, node 4, m/s
         79   -8.747E-05                                 F               0         Tower X translation velocity, node 5, m/s
         80    4.779E-02                                 F               0         Tower Y translation velocity, node 5, m/s
         81    7.208E-03                                 F               0         Tower Z translation velocity, node 5, m/s
         82   -1.910E-04                                 F               0         Tower X translation velocity, node 6, m/s
         83    5.625E-02                                 F               0         Tower Y translation velocity, node 6, m/s
         84    7.600E-03                                 F               0         Tower Z translation velocity, node 6, m/s
         85   -2.946E-04                                 F               0         Tower X translation velocity, node 7, m/s
         86    6.472E-02                                 F               0         Tower Y translation velocity, node 7, m/s
         87    7.993E-03                                 F               0         Tower Z translation velocity, node 7, m/s
         88   -3.981E-04                                 F               0         Tower X translation velocity, node 8, m/s
         89    7.319E-02                                 F               0         Tower Y translation velocity, node 8, m/s
         90    8.385E-03                                 F               0         Tower Z translation velocity, node 8, m/s
         91   -5.017E-04                                 F               0         Tower X translation velocity, node 9, m/s
         92    8.166E-02                                 F               0         Tower Y translation velocity, node 9, m/s
         93    8.777E-03                                 F               0         Tower Z translation velocity, node 9, m/s
         94   -6.052E-04                                 F               0         Tower X translation velocity, node 10, m/s
         95    9.013E-02                                 F               0         Tower Y translation velocity, node 10, m/s
         96    9.169E-03                                 F               0         Tower Z translation velocity, node 10, m/s
         97   -7.088E-04                                 F               0         Tower X translation velocity, node 11, m/s
         98    9.860E-02                                 F               0         Tower Y translation velocity, node 11, m/s
         99    9.562E-03                                 F               0         Tower Z translation velocity, node 11, m/s
        100    3.510E+01                                 F               0         Hub X translation displacement, node 1, m
        101   -6.969E+00                                 F               0         Hub Y translation displacement, node 1, m
        102   -4.666E-01                                 F               0         Hub Z translation displacement, node 1, m
        103    9.674E-01,  1.991E-02, -2.525E-01         F               0         Hub X orientation angle, node 1, rad
        104    2.335E-01,  3.158E-01,  9.196E-01         F               0         Hub Y orientation angle, node 1, rad
        105    9.804E-02, -9.486E-01,  3.008E-01         F               0         Hub Z orientation angle, node 1, rad
        106    1.012E+00                                 F               0         Hub X rotation velocity, node 1, rad/s
        107    2.083E-02                                 F               0         Hub Y rotation velocity, node 1, rad/s
        108   -2.642E-01                                 F               0         Hub Z rotation velocity, node 1, rad/s
        109    9.600E-01,  1.053E-02, -2.797E-01         F               0         Blade root 1 X orientation angle, node 1, rad
        110    2.621E-01,  3.162E-01,  9.118E-01         F               0         Blade root 1 Y orientation angle, node 1, rad
        111    9.804E-02, -9.486E-01,  3.008E-01         F               0         Blade root 1 Z orientation angle, node 1, rad
        112    9.679E-01,  4.895E-02, -2.465E-01         F               0         Blade root 2 X orientation angle, node 1, rad
        113   -3.156E-03, -9.784E-01, -2.067E-01         F               0         Blade root 2 Y orientation angle, node 1, rad
        114   -2.513E-01,  2.009E-01, -9.468E-01         F               0         Blade root 2 Z orientation angle, node 1, rad
        115    9.729E-01,  2.110E-04, -2.310E-01         F               0         Blade root 3 X orientation angle, node 1, rad
        116   -1.729E-01,  6.640E-01, -7.275E-01         F               0         Blade root 3 Y orientation angle, node 1, rad
        117    1.532E-01,  7.478E-01,  6.460E-01         F               0         Blade root 3 Z orientation angle, node 1, rad
        118    3.506E+01                                 F               0         Blade 1 X translation displacement, node 1, m
        119   -1.222E+01                                 F               0         Blade 1 Y translation displacement, node 1, m
        120   -4.310E+00                                 F               0         Blade 1 Z translation displacement, node 1, m
        121    3.505E+01                                 F               0         Blade 1 X translation displacement, node 2, m
        122   -1.349E+01                                 F               0         Blade 1 Y translation displacement, node 2, m
        123   -5.236E+00                                 F               0         Blade 1 Z translation displacement, node 2, m
        124    3.493E+01                                 F               0         Blade 1 X translation displacement, node 3, m
        125   -3.071E+01                                 F               0         Blade 1 Y translation displacement, node 3, m
        126   -1.783E+01                                 F               0         Blade 1 Z translation displacement, node 3, m
        127    3.491E+01                                 F               0         Blade 1 X translation displacement, node 4, m
        128   -3.438E+01                                 F               0         Blade 1 Y translation displacement, node 4, m
        129   -2.051E+01                                 F               0         Blade 1 Z translation displacement, node 4, m
        130    3.488E+01                                 F               0         Blade 1 X translation displacement, node 5, m
        131   -3.805E+01                                 F               0         Blade 1 Y translation displacement, node 5, m
        132   -2.319E+01                                 F               0         Blade 1 Z translation displacement, node 5, m
        133    3.486E+01                                 F               0         Blade 1 X translation displacement, node 6, m
        134   -4.172E+01                                 F               0         Blade 1 Y translation displacement, node 6, m
        135   -2.588E+01                                 F               0         Blade 1 Z translation displacement, node 6, m
        136    3.483E+01                                 F               0         Blade 1 X translation displacement, node 7, m
        137   -4.539E+01                                 F               0         Blade 1 Y translation displacement, node 7, m
        138   -2.856E+01                                 F               0         Blade 1 Z translation displacement, node 7, m
        139    3.481E+01                                 F               0         Blade 1 X translation displacement, node 8, m
        140   -4.906E+01                                 F               0         Blade 1 Y translation displacement, node 8, m
        141   -3.124E+01                                 F               0         Blade 1 Z translation displacement, node 8, m
        142    3.478E+01                                 F               0         Blade 1 X translation displacement, node 9, m
        143   -5.273E+01                                 F               0         Blade 1 Y translation displacement, node 9, m
        144   -3.393E+01                                 F               0         Blade 1 Z translation displacement, node 9, m
        145    3.476E+01                                 F               0         Blade 1 X translation displacement, node 10, m
        146   -5.639E+01                                 F               0         Blade 1 Y translation displacement, node 10, m
        147   -3.661E+01                                 F               0         Blade 1 Z translation displacement, node 10, m
        148    3.473E+01                                 F               0         Blade 1 X translation displacement, node 11, m
        149   -6.006E+01                                 F               0         Blade 1 Y translation displacement, node 11, m
        150   -3.929E+01                                 F               0         Blade 1 Z translation displacement, node 11, m
        151    3.471E+01                                 F               0         Blade 1 X translation displacement, node 12, m
        152   -6.373E+01                                 F               0         Blade 1 Y translation displacement, node 12, m
        153   -4.198E+01                                 F               0         Blade 1 Z translation displacement, node 12, m
        154    3.468E+01                                 F               0         Blade 1 X translation displacement, node 13, m
        155   -6.740E+01                                 F               0         Blade 1 Y translation displacement, node 13, m
        156   -4.466E+01                                 F               0         Blade 1 Z translation displacement, node 13, m
        157    3.466E+01                                 F               0         Blade 1 X translation displacement, node 14, m
        158   -7.107E+01                                 F               0         Blade 1 Y translation displacement, node 14, m
        159   -4.734E+01                                 F               0         Blade 1 Z translation displacement, node 14, m
        160    3.463E+01                                 F               0         Blade 1 X translation displacement, node 15, m
        161   -7.474E+01                                 F               0         Blade 1 Y translation displacement, node 15, m
        162   -5.003E+01                                 F               0         Blade 1 Z translation displacement, node 15, m
        163    3.461E+01                                 F               0         Blade 1 X translation displacement, node 16, m
        164   -7.841E+01                                 F               0         Blade 1 Y translation displacement, node 16, m
        165   -5.271E+01                                 F               0         Blade 1 Z translation displacement, node 16, m
        166    3.458E+01                                 F               0         Blade 1 X translation displacement, node 17, m
        167   -8.208E+01                                 F               0         Blade 1 Y translation displacement, node 17, m
        168   -5.539E+01                                 F               0         Blade 1 Z translation displacement, node 17, m
        169    3.456E+01                                 F               0         Blade 1 X translation displacement, node 18, m
        170   -8.575E+01                                 F               0         Blade 1 Y translation displacement, node 18, m
        171   -5.807E+01                                 F               0         Blade 1 Z translation displacement, node 18, m
        172    3.453E+01                                 F               0         Blade 1 X translation displacement, node 19, m
        173   -8.942E+01                                 F               0         Blade 1 Y translation displacement, node 19, m
        174   -6.076E+01                                 F               0         Blade 1 Z translation displacement, node 19, m
        175    3.451E+01                                 F               0         Blade 1 X translation displacement, node 20, m
        176   -9.308E+01                                 F               0         Blade 1 Y translation displacement, node 20, m
        177   -6.344E+01                                 F               0         Blade 1 Z translation displacement, node 20, m
        178    3.448E+01                                 F               0         Blade 1 X translation displacement, node 21, m
        179   -9.675E+01                                 F               0         Blade 1 Y translation displacement, node 21, m
        180   -6.612E+01                                 F               0         Blade 1 Z translation displacement, node 21, m
        181    3.446E+01                                 F               0         Blade 1 X translation displacement, node 22, m
        182   -1.004E+02                                 F               0         Blade 1 Y translation displacement, node 22, m
        183   -6.881E+01                                 F               0         Blade 1 Z translation displacement, node 22, m
        184    3.443E+01                                 F               0         Blade 1 X translation displacement, node 23, m
        185   -1.041E+02                                 F               0         Blade 1 Y translation displacement, node 23, m
        186   -7.149E+01                                 F               0         Blade 1 Z translation displacement, node 23, m
        187    3.441E+01                                 F               0         Blade 1 X translation displacement, node 24, m
        188   -1.078E+02                                 F               0         Blade 1 Y translation displacement, node 24, m
        189   -7.417E+01                                 F               0         Blade 1 Z translation displacement, node 24, m
        190    3.438E+01                                 F               0         Blade 1 X translation displacement, node 25, m
        191   -1.114E+02                                 F               0         Blade 1 Y translation displacement, node 25, m
        192   -7.686E+01                                 F               0         Blade 1 Z translation displacement, node 25, m
        193    3.436E+01                                 F               0         Blade 1 X translation displacement, node 26, m
        194   -1.151E+02                                 F               0         Blade 1 Y translation displacement, node 26, m
        195   -7.954E+01                                 F               0         Blade 1 Z translation displacement, node 26, m
        196    3.433E+01                                 F               0         Blade 1 X translation displacement, node 27, m
        197   -1.188E+02                                 F               0         Blade 1 Y translation displacement, node 27, m
        198   -8.222E+01                                 F               0         Blade 1 Z translation displacement, node 27, m
        199    3.431E+01                                 F               0         Blade 1 X translation displacement, node 28, m
        200   -1.219E+02                                 F               0         Blade 1 Y translation displacement, node 28, m
        201   -8.450E+01                                 F               0         Blade 1 Z translation displacement, node 28, m
        202    7.349E-01, -1.348E-01, -6.647E-01         F               0         Blade 1 X orientation angle, node 1, rad
        203    6.711E-01,  2.862E-01,  6.839E-01         F               0         Blade 1 Y orientation angle, node 1, rad
        204    9.804E-02, -9.486E-01,  3.008E-01         F               0         Blade 1 Z orientation angle, node 1, rad
        205    7.349E-01, -1.348E-01, -6.647E-01         F               0         Blade 1 X orientation angle, node 2, rad
        206    6.711E-01,  2.862E-01,  6.839E-01         F               0         Blade 1 Y orientation angle, node 2, rad
        207    9.804E-02, -9.486E-01,  3.008E-01         F               0         Blade 1 Z orientation angle, node 2, rad
        208    8.730E-01, -6.314E-02, -4.836E-01         F               0         Blade 1 X orientation angle, node 3, rad
        209    4.778E-01,  3.100E-01,  8.219E-01         F               0         Blade 1 Y orientation angle, node 3, rad
        210    9.804E-02, -9.486E-01,  3.008E-01         F               0         Blade 1 Z orientation angle, node 3, rad
        211    8.924E-01, -5.000E-02, -4.485E-01         F               0         Blade 1 X orientation angle, node 4, rad
        212    4.405E-01,  3.124E-01,  8.416E-01         F               0         Blade 1 Y orientation angle, node 4, rad
        213    9.804E-02, -9.486E-01,  3.008E-01         F               0         Blade 1 Z orientation angle, node 4, rad
        214    9.065E-01, -3.961E-02, -4.204E-01         F               0         Blade 1 X orientation angle, node 5, rad
        215    4.107E-01,  3.139E-01,  8.560E-01         F               0         Blade 1 Y orientation angle, node 5, rad
        216    9.804E-02, -9.486E-01,  3.008E-01         F               0         Blade 1 Z orientation angle, node 5, rad
        217    9.171E-01, -3.127E-02, -3.975E-01         F               0         Blade 1 X orientation angle, node 6, rad
        218    3.865E-01,  3.148E-01,  8.669E-01         F               0         Blade 1 Y orientation angle, node 6, rad
        219    9.804E-02, -9.486E-01,  3.008E-01         F               0         Blade 1 Z orientation angle, node 6, rad
        220    9.253E-01, -2.440E-02, -3.785E-01         F               0         Blade 1 X orientation angle, node 7, rad
        221    3.664E-01,  3.154E-01,  8.754E-01         F               0         Blade 1 Y orientation angle, node 7, rad
        222    9.804E-02, -9.486E-01,  3.008E-01         F               0         Blade 1 Z orientation angle, node 7, rad
        223    9.318E-01, -1.867E-02, -3.625E-01         F               0         Blade 1 X orientation angle, node 8, rad
        224    3.495E-01,  3.158E-01,  8.821E-01         F               0         Blade 1 Y orientation angle, node 8, rad
        225    9.804E-02, -9.486E-01,  3.008E-01         F               0         Blade 1 Z orientation angle, node 8, rad
        226    9.370E-01, -1.381E-02, -3.490E-01         F               0         Blade 1 X orientation angle, node 9, rad
        227    3.352E-01,  3.161E-01,  8.875E-01         F               0         Blade 1 Y orientation angle, node 9, rad