
Linearized model: Predictions were generated on 30-Jan-2024 at 18:20:32 using OpenFAST, compiled as a 64-bit application using single precision at commit v3.5.1
 linked with  NWTC Subroutine Library; ElastoDyn; InflowWind; AeroDyn; ServoDyn; HydroDyn; MAP++ (<1.20.10>, <Oct-20-2023>)

Description from the FAST input file: CCT-9 Campign 4 model. Input files to be run with OpenFAST 3.5.0. GitHub branch from Lu Wang (https://github.com/luwang00/openfast/tree/dev) compiled on March 7, 2023.

Simulation information:
   Simulation time:                   507.4250 s
   Rotor Speed:                         0.8793 rad/s
   Azimuth:                             5.4068 rad
   Wind Speed:                         10.0000 m/s
   Number of continuous states:        14
   Number of discrete states:           0
   Number of constraint states:         0
   Number of inputs:                 1890
   Number of outputs:                  19
   Jacobians included in this file?    No

Order of continuous states:
   Row/Column Operating Point                     Rotating Frame? Derivative Order Description
   ---------- ---------------                     --------------- ---------------- -----------
          1    8.859E+00                                 F               2         Platform horizontal surge translation DOF (internal DOF index = DOF_Sg), m
          2   -3.548E-01                                 F               2         Platform horizontal sway translation DOF (internal DOF index = DOF_Sw), m
          3   -1.529E-01                                 F               2         Platform vertical heave translation DOF (internal DOF index = DOF_Hv), m
          4    4.312E-02                                 F               2         Platform roll tilt rotation DOF (internal DOF index = DOF_R), rad
          5    1.156E-01                                 F               2         Platform pitch tilt rotation DOF (internal DOF index = DOF_P), rad
          6    7.275E-03                                 F               2         Platform yaw rotation DOF (internal DOF index = DOF_Y), rad
          7    3.836E+00                                 F               2         Variable speed generator DOF (internal DOF index = DOF_GeAz), rad
          8   -4.790E-03                                 F               2         First time derivative of Platform horizontal surge translation DOF (internal DOF index = DOF_Sg), m/s
          9   -2.621E-04                                 F               2         First time derivative of Platform horizontal sway translation DOF (internal DOF index = DOF_Sw), m/s
         10    3.909E-03                                 F               2         First time derivative of Platform vertical heave translation DOF (internal DOF index = DOF_Hv), m/s
         11    3.501E-04                                 F               2         First time derivative of Platform roll tilt rotation DOF (internal DOF index = DOF_R), rad/s
         12    1.038E-05                                 F               2         First time derivative of Platform pitch tilt rotation DOF (internal DOF index = DOF_P), rad/s
         13   -8.134E-05                                 F               2         First time derivative of Platform yaw rotation DOF (internal DOF index = DOF_Y), rad/s
         14    8.793E-01                                 F               2         First time derivative of Variable speed generator DOF (internal DOF index = DOF_GeAz), rad/s

Order of continuous state derivatives:
   Row/Column Operating Point                     Rotating Frame? Derivative Order Description
   ---------- ---------------                     --------------- ---------------- -----------
          1   -4.790E-03                                 F               2         First time derivative of Platform horizontal surge translation DOF (internal DOF index = DOF_Sg), m/s
          2   -2.621E-04                                 F               2         First time derivative of Platform horizontal sway translation DOF (internal DOF index = DOF_Sw), m/s
          3    3.909E-03                                 F               2         First time derivative of Platform vertical heave translation DOF (internal DOF index = DOF_Hv), m/s
          4    3.501E-04                                 F               2         First time derivative of Platform roll tilt rotation DOF (internal DOF index = DOF_R), rad/s
          5    1.038E-05                                 F               2         First time derivative of Platform pitch tilt rotation DOF (internal DOF index = DOF_P), rad/s
          6   -8.134E-05                                 F               2         First time derivative of Platform yaw rotation DOF (internal DOF index = DOF_Y), rad/s
          7    8.793E-01                                 F               2         First time derivative of Variable speed generator DOF (internal DOF index = DOF_GeAz), rad/s
          8   -1.914E-04                                 F               2         First time derivative of First time derivative of Platform horizontal surge translation DOF (internal DOF index = DOF_Sg), m/s/s
          9    7.203E-05                                 F               2         First time derivative of First time derivative of Platform horizontal sway translation DOF (internal DOF index = DOF_Sw), m/s/s
         10   -6.477E-04                                 F               2         First time derivative of First time derivative of Platform vertical heave translation DOF (internal DOF index = DOF_Hv), m/s/s
         11    1.667E-05                                 F               2         First time derivative of First time derivative of Platform roll tilt rotation DOF (internal DOF index = DOF_R), rad/s/s
         12   -4.970E-06                                 F               2         First time derivative of First time derivative of Platform pitch tilt rotation DOF (internal DOF index = DOF_P), rad/s/s
         13   -7.446E-06                                 F               2         First time derivative of First time derivative of Platform yaw rotation DOF (internal DOF index = DOF_Y), rad/s/s
         14   -1.513E-04                                 F               2         First time derivative of First time derivative of Variable speed generator DOF (internal DOF index = DOF_GeAz), rad/s/s

Order of inputs:
     Column   Operating Point                     Rotating Frame? Derivative Order Description
   ---------- ---------------                     --------------- ---------------- -----------
          1    5.910E+01                                 F               0         Blade 1 X force, node 1, N
          2    3.124E+01                                 F               0         Blade 1 Y force, node 1, N
          3   -4.746E+01                                 F               0         Blade 1 Z force, node 1, N
          4    2.766E+02                                 F               0         Blade 1 X force, node 2, N
          5    6.664E+01                                 F               0         Blade 1 Y force, node 2, N
          6   -1.324E+02                                 F               0         Blade 1 Z force, node 2, N
          7    3.891E+02                                 F               0         Blade 1 X force, node 3, N
          8    3.037E+01                                 F               0         Blade 1 Y force, node 3, N
          9   -1.147E+02                                 F               0         Blade 1 Z force, node 3, N
         10    5.312E+02                                 F               0         Blade 1 X force, node 4, N
         11    1.524E+00                                 F               0         Blade 1 Y force, node 4, N
         12   -1.115E+02                                 F               0         Blade 1 Z force, node 4, N
         13    6.732E+02                                 F               0         Blade 1 X force, node 5, N
         14   -2.732E+01                                 F               0         Blade 1 Y force, node 5, N
         15   -1.084E+02                                 F               0         Blade 1 Z force, node 5, N
         16    8.152E+02                                 F               0         Blade 1 X force, node 6, N
         17   -5.617E+01                                 F               0         Blade 1 Y force, node 6, N
         18   -1.052E+02                                 F               0         Blade 1 Z force, node 6, N
         19    9.572E+02                                 F               0         Blade 1 X force, node 7, N
         20   -8.502E+01                                 F               0         Blade 1 Y force, node 7, N
         21   -1.020E+02                                 F               0         Blade 1 Z force, node 7, N
         22    1.099E+03                                 F               0         Blade 1 X force, node 8, N
         23   -1.139E+02                                 F               0         Blade 1 Y force, node 8, N
         24   -9.885E+01                                 F               0         Blade 1 Z force, node 8, N
         25    1.241E+03                                 F               0         Blade 1 X force, node 9, N
         26   -1.427E+02                                 F               0         Blade 1 Y force, node 9, N
         27   -9.568E+01                                 F               0         Blade 1 Z force, node 9, N
         28    1.383E+03                                 F               0         Blade 1 X force, node 10, N
         29   -1.716E+02                                 F               0         Blade 1 Y force, node 10, N
         30   -9.251E+01                                 F               0         Blade 1 Z force, node 10, N
         31    1.525E+03                                 F               0         Blade 1 X force, node 11, N
         32   -2.004E+02                                 F               0         Blade 1 Y force, node 11, N
         33   -8.933E+01                                 F               0         Blade 1 Z force, node 11, N
         34    1.667E+03                                 F               0         Blade 1 X force, node 12, N
         35   -2.293E+02                                 F               0         Blade 1 Y force, node 12, N
         36   -8.616E+01                                 F               0         Blade 1 Z force, node 12, N
         37    1.809E+03                                 F               0         Blade 1 X force, node 13, N
         38   -2.581E+02                                 F               0         Blade 1 Y force, node 13, N
         39   -8.299E+01                                 F               0         Blade 1 Z force, node 13, N
         40    1.951E+03                                 F               0         Blade 1 X force, node 14, N
         41   -2.869E+02                                 F               0         Blade 1 Y force, node 14, N
         42   -7.981E+01                                 F               0         Blade 1 Z force, node 14, N
         43    2.093E+03                                 F               0         Blade 1 X force, node 15, N
         44   -3.158E+02                                 F               0         Blade 1 Y force, node 15, N
         45   -7.664E+01                                 F               0         Blade 1 Z force, node 15, N
         46    2.235E+03                                 F               0         Blade 1 X force, node 16, N
         47   -3.446E+02                                 F               0         Blade 1 Y force, node 16, N
         48   -7.347E+01                                 F               0         Blade 1 Z force, node 16, N
         49    2.757E+03                                 F               0         Blade 1 X force, node 17, N
         50   -4.311E+02                                 F               0         Blade 1 Y force, node 17, N
         51   -8.375E+01                                 F               0         Blade 1 Z force, node 17, N
         52    2.106E+03                                 F               0         Blade 1 X force, node 18, N
         53   -3.162E+02                                 F               0         Blade 1 Y force, node 18, N
         54   -7.876E+01                                 F               0         Blade 1 Z force, node 18, N
         55    2.584E+03                                 F               0         Blade 1 X force, node 19, N
         56   -3.667E+02                                 F               0         Blade 1 Y force, node 19, N
         57   -1.207E+02                                 F               0         Blade 1 Z force, node 19, N
         58    2.203E+03                                 F               0         Blade 1 X force, node 20, N
         59   -2.958E+02                                 F               0         Blade 1 Y force, node 20, N
         60   -1.219E+02                                 F               0         Blade 1 Z force, node 20, N
         61    3.254E+03                                 F               0         Blade 1 X force, node 21, N
         62   -4.093E+02                                 F               0         Blade 1 Y force, node 21, N
         63   -2.111E+02                                 F               0         Blade 1 Z force, node 21, N
         64    2.872E+03                                 F               0         Blade 1 X force, node 22, N
         65   -3.383E+02                                 F               0         Blade 1 Y force, node 22, N
         66   -2.123E+02                                 F               0         Blade 1 Z force, node 22, N
         67    2.950E+03                                 F               0         Blade 1 X force, node 23, N
         68   -3.269E+02                                 F               0         Blade 1 Y force, node 23, N
         69   -2.413E+02                                 F               0         Blade 1 Z force, node 23, N
         70    3.081E+03                                 F               0         Blade 1 X force, node 24, N
         71   -3.211E+02                                 F               0         Blade 1 Y force, node 24, N
         72   -2.748E+02                                 F               0         Blade 1 Z force, node 24, N
         73    3.158E+03                                 F               0         Blade 1 X force, node 25, N
         74   -3.097E+02                                 F               0         Blade 1 Y force, node 25, N
         75   -3.037E+02                                 F               0         Blade 1 Z force, node 25, N
         76    3.252E+03                                 F               0         Blade 1 X force, node 26, N
         77   -3.001E+02                                 F               0         Blade 1 Y force, node 26, N
         78   -3.340E+02                                 F               0         Blade 1 Z force, node 26, N
         79    3.898E+03                                 F               0         Blade 1 X force, node 27, N
         80   -3.370E+02                                 F               0         Blade 1 Y force, node 27, N
         81   -4.258E+02                                 F               0         Blade 1 Z force, node 27, N
         82    2.890E+03                                 F               0         Blade 1 X force, node 28, N
         83   -2.343E+02                                 F               0         Blade 1 Y force, node 28, N
         84   -3.333E+02                                 F               0         Blade 1 Z force, node 28, N
         85    3.536E+03                                 F               0         Blade 1 X force, node 29, N
         86   -2.714E+02                                 F               0         Blade 1 Y force, node 29, N
         87   -4.251E+02                                 F               0         Blade 1 Z force, node 29, N
         88    3.009E+03                                 F               0         Blade 1 X force, node 30, N
         89   -2.185E+02                                 F               0         Blade 1 Y force, node 30, N
         90   -3.756E+02                                 F               0         Blade 1 Z force, node 30, N
         91    4.348E+03                                 F               0         Blade 1 X force, node 31, N
         92   -2.957E+02                                 F               0         Blade 1 Y force, node 31, N
         93   -5.654E+02                                 F               0         Blade 1 Z force, node 31, N
         94    3.820E+03                                 F               0         Blade 1 X force, node 32, N
         95   -2.428E+02                                 F               0         Blade 1 Y force, node 32, N
         96   -5.159E+02                                 F               0         Blade 1 Z force, node 32, N
         97    3.914E+03                                 F               0         Blade 1 X force, node 33, N
         98   -2.333E+02                                 F               0         Blade 1 Y force, node 33, N
         99   -5.460E+02                                 F               0         Blade 1 Z force, node 33, N
        100    4.008E+03                                 F               0         Blade 1 X force, node 34, N
        101   -2.238E+02                                 F               0         Blade 1 Y force, node 34, N
        102   -5.763E+02                                 F               0         Blade 1 Z force, node 34, N
        103    4.103E+03                                 F               0         Blade 1 X force, node 35, N
        104   -2.144E+02                                 F               0         Blade 1 Y force, node 35, N
        105   -6.065E+02                                 F               0         Blade 1 Z force, node 35, N
        106    4.197E+03                                 F               0         Blade 1 X force, node 36, N
        107   -2.050E+02                                 F               0         Blade 1 Y force, node 36, N
        108   -6.366E+02                                 F               0         Blade 1 Z force, node 36, N
        109    5.021E+03                                 F               0         Blade 1 X force, node 37, N
        110   -2.277E+02                                 F               0         Blade 1 Y force, node 37, N
        111   -7.813E+02                                 F               0         Blade 1 Z force, node 37, N
        112    3.657E+03                                 F               0         Blade 1 X force, node 38, N
        113   -1.540E+02                                 F               0         Blade 1 Y force, node 38, N
        114   -5.825E+02                                 F               0         Blade 1 Z force, node 38, N
        115    4.482E+03                                 F               0         Blade 1 X force, node 39, N
        116   -1.769E+02                                 F               0         Blade 1 Y force, node 39, N
        117   -7.273E+02                                 F               0         Blade 1 Z force, node 39, N
        118    3.822E+03                                 F               0         Blade 1 X force, node 40, N
        119   -1.411E+02                                 F               0         Blade 1 Y force, node 40, N
        120   -6.311E+02                                 F               0         Blade 1 Z force, node 40, N
        121    5.428E+03                                 F               0         Blade 1 X force, node 41, N
        122   -1.847E+02                                 F               0         Blade 1 Y force, node 41, N
        123   -9.140E+02                                 F               0         Blade 1 Z force, node 41, N
        124    4.767E+03                                 F               0         Blade 1 X force, node 42, N
        125   -1.489E+02                                 F               0         Blade 1 Y force, node 42, N
        126   -8.177E+02                                 F               0         Blade 1 Z force, node 42, N
        127    4.861E+03                                 F               0         Blade 1 X force, node 43, N
        128   -1.395E+02                                 F               0         Blade 1 Y force, node 43, N
        129   -8.477E+02                                 F               0         Blade 1 Z force, node 43, N
        130    4.982E+03                                 F               0         Blade 1 X force, node 44, N
        131   -1.308E+02                                 F               0         Blade 1 Y force, node 44, N
        132   -8.824E+02                                 F               0         Blade 1 Z force, node 44, N
        133    5.024E+03                                 F               0         Blade 1 X force, node 45, N
        134   -1.202E+02                                 F               0         Blade 1 Y force, node 45, N
        135   -9.031E+02                                 F               0         Blade 1 Z force, node 45, N
        136    5.144E+03                                 F               0         Blade 1 X force, node 46, N
        137   -1.116E+02                                 F               0         Blade 1 Y force, node 46, N
        138   -9.378E+02                                 F               0         Blade 1 Z force, node 46, N
        139    6.158E+03                                 F               0         Blade 1 X force, node 47, N
        140   -1.194E+02                                 F               0         Blade 1 Y force, node 47, N
        141   -1.139E+03                                 F               0         Blade 1 Z force, node 47, N
        142    4.414E+03                                 F               0         Blade 1 X force, node 48, N
        143   -7.593E+01                                 F               0         Blade 1 Y force, node 48, N
        144   -8.271E+02                                 F               0         Blade 1 Z force, node 48, N
        145    5.427E+03                                 F               0         Blade 1 X force, node 49, N
        146   -8.373E+01                                 F               0         Blade 1 Y force, node 49, N
        147   -1.028E+03                                 F               0         Blade 1 Z force, node 49, N
        148    4.644E+03                                 F               0         Blade 1 X force, node 50, N
        149   -6.354E+01                                 F               0         Blade 1 Y force, node 50, N
        150   -8.885E+02                                 F               0         Blade 1 Z force, node 50, N
        151    6.494E+03                                 F               0         Blade 1 X force, node 51, N
        152   -7.611E+01                                 F               0         Blade 1 Y force, node 51, N
        153   -1.257E+03                                 F               0         Blade 1 Z force, node 51, N
        154    5.712E+03                                 F               0         Blade 1 X force, node 52, N
        155   -5.603E+01                                 F               0         Blade 1 Y force, node 52, N
        156   -1.118E+03                                 F               0         Blade 1 Z force, node 52, N
        157    5.808E+03                                 F               0         Blade 1 X force, node 53, N
        158   -4.686E+01                                 F               0         Blade 1 Y force, node 53, N
        159   -1.148E+03                                 F               0         Blade 1 Z force, node 53, N
        160    5.969E+03                                 F               0         Blade 1 X force, node 54, N
        161   -3.806E+01                                 F               0         Blade 1 Y force, node 54, N
        162   -1.191E+03                                 F               0         Blade 1 Z force, node 54, N
        163    5.934E+03                                 F               0         Blade 1 X force, node 55, N
        164   -2.813E+01                                 F               0         Blade 1 Y force, node 55, N
        165   -1.195E+03                                 F               0         Blade 1 Z force, node 55, N
        166    6.095E+03                                 F               0         Blade 1 X force, node 56, N
        167   -1.934E+01                                 F               0         Blade 1 Y force, node 56, N
        168   -1.238E+03                                 F               0         Blade 1 Z force, node 56, N
        169    7.310E+03                                 F               0         Blade 1 X force, node 57, N
        170   -1.124E+01                                 F               0         Blade 1 Y force, node 57, N
        171   -1.499E+03                                 F               0         Blade 1 Z force, node 57, N
        172    5.166E+03                                 F               0         Blade 1 X force, node 58, N
        173    7.970E-02                                 F               0         Blade 1 Y force, node 58, N
        174   -1.068E+03                                 F               0         Blade 1 Z force, node 58, N
        175    6.382E+03                                 F               0         Blade 1 X force, node 59, N
        176    8.154E+00                                 F               0         Blade 1 Y force, node 59, N
        177   -1.329E+03                                 F               0         Blade 1 Z force, node 59, N
        178    5.486E+03                                 F               0         Blade 1 X force, node 60, N
        179    1.389E+01                                 F               0         Blade 1 Y force, node 60, N
        180   -1.150E+03                                 F               0         Blade 1 Z force, node 60, N
        181    7.564E+03                                 F               0         Blade 1 X force, node 61, N
        182    2.990E+01                                 F               0         Blade 1 Y force, node 61, N
        183   -1.598E+03                                 F               0         Blade 1 Z force, node 61, N
        184    6.666E+03                                 F               0         Blade 1 X force, node 62, N
        185    3.570E+01                                 F               0         Blade 1 Y force, node 62, N
        186   -1.419E+03                                 F               0         Blade 1 Z force, node 62, N
        187    6.760E+03                                 F               0         Blade 1 X force, node 63, N
        188    4.491E+01                                 F               0         Blade 1 Y force, node 63, N
        189   -1.448E+03                                 F               0         Blade 1 Z force, node 63, N
        190    6.969E+03                                 F               0         Blade 1 X force, node 64, N
        191    5.506E+01                                 F               0         Blade 1 Y force, node 64, N
        192   -1.503E+03                                 F               0         Blade 1 Z force, node 64, N
        193    6.836E+03                                 F               0         Blade 1 X force, node 65, N
        194    6.226E+01                                 F               0         Blade 1 Y force, node 65, N
        195   -1.484E+03                                 F               0         Blade 1 Z force, node 65, N
        196    7.048E+03                                 F               0         Blade 1 X force, node 66, N
        197    7.231E+01                                 F               0         Blade 1 Y force, node 66, N
        198   -1.539E+03                                 F               0         Blade 1 Z force, node 66, N
        199    8.476E+03                                 F               0         Blade 1 X force, node 67, N
        200    9.724E+01                                 F               0         Blade 1 Y force, node 67, N
        201   -1.862E+03                                 F               0         Blade 1 Z force, node 67, N
        202    5.910E+03                                 F               0         Blade 1 X force, node 68, N
        203    7.469E+01                                 F               0         Blade 1 Y force, node 68, N
        204   -1.306E+03                                 F               0         Blade 1 Z force, node 68, N
        205    7.337E+03                                 F               0         Blade 1 X force, node 69, N
        206    9.970E+01                                 F               0         Blade 1 Y force, node 69, N
        207   -1.630E+03                                 F               0         Blade 1 Z force, node 69, N
        208    6.338E+03                                 F               0         Blade 1 X force, node 70, N
        209    9.220E+01                                 F               0         Blade 1 Y force, node 70, N
        210   -1.415E+03                                 F               0         Blade 1 Z force, node 70, N