
Linearized model: Predictions were generated on 12-Feb-2024 at 18:31:58 using OpenFAST, compiled as a 64-bit application using single precision at commit v3.5.1
 linked with  NWTC Subroutine Library; ElastoDyn; InflowWind; AeroDyn; ServoDyn; HydroDyn; MAP++ (<1.20.10>, <Oct-20-2023>)

Description from the FAST input file: CCT-9 Campign 4 model. Input files to be run with OpenFAST 3.5.0. GitHub branch from Lu Wang (https://github.com/luwang00/openfast/tree/dev) compiled on March 7, 2023.

Simulation information:
   Simulation time:                  1000.5000 s
   Rotor Speed:                         1.0459 rad/s
   Azimuth:                             0.1902 rad
   Wind Speed:                         12.0000 m/s
   Number of continuous states:         0
   Number of discrete states:           0
   Number of constraint states:         0
   Number of inputs:                  303
   Number of outputs:                   1
   Jacobians included in this file?    No

Order of inputs:
     Column   Operating Point                     Rotating Frame? Derivative Order Description
   ---------- ---------------                     --------------- ---------------- -----------
          1   -1.080E+01                                 F               0         X-component position of node 1 (hub), m
          2    0.000E+00                                 F               0         Y-component position of node 1 (hub), m
          3    1.497E+02                                 F               0         Z-component position of node 1 (hub), m
          4    2.571E+01                                 F               0         X-component position of node 2 (blade 1, node 1), m
          5   -8.348E+00                                 F               0         Y-component position of node 2 (blade 1, node 1), m
          6    1.545E+02                                 F               0         Z-component position of node 2 (blade 1, node 1), m
          7    2.605E+01                                 F               0         X-component position of node 3 (blade 1, node 2), m
          8   -8.656E+00                                 F               0         Y-component position of node 3 (blade 1, node 2), m
          9    1.557E+02                                 F               0         Z-component position of node 3 (blade 1, node 2), m
         10    3.059E+01                                 F               0         X-component position of node 4 (blade 1, node 3), m
         11   -1.285E+01                                 F               0         Y-component position of node 4 (blade 1, node 3), m
         12    1.728E+02                                 F               0         Z-component position of node 4 (blade 1, node 3), m
         13    3.156E+01                                 F               0         X-component position of node 5 (blade 1, node 4), m
         14   -1.374E+01                                 F               0         Y-component position of node 5 (blade 1, node 4), m
         15    1.764E+02                                 F               0         Z-component position of node 5 (blade 1, node 4), m
         16    3.253E+01                                 F               0         X-component position of node 6 (blade 1, node 5), m
         17   -1.463E+01                                 F               0         Y-component position of node 6 (blade 1, node 5), m
         18    1.801E+02                                 F               0         Z-component position of node 6 (blade 1, node 5), m
         19    3.350E+01                                 F               0         X-component position of node 7 (blade 1, node 6), m
         20   -1.553E+01                                 F               0         Y-component position of node 7 (blade 1, node 6), m
         21    1.837E+02                                 F               0         Z-component position of node 7 (blade 1, node 6), m
         22    3.446E+01                                 F               0         X-component position of node 8 (blade 1, node 7), m
         23   -1.642E+01                                 F               0         Y-component position of node 8 (blade 1, node 7), m
         24    1.873E+02                                 F               0         Z-component position of node 8 (blade 1, node 7), m
         25    3.543E+01                                 F               0         X-component position of node 9 (blade 1, node 8), m
         26   -1.731E+01                                 F               0         Y-component position of node 9 (blade 1, node 8), m
         27    1.910E+02                                 F               0         Z-component position of node 9 (blade 1, node 8), m
         28    3.640E+01                                 F               0         X-component position of node 10 (blade 1, node 9), m
         29   -1.821E+01                                 F               0         Y-component position of node 10 (blade 1, node 9), m
         30    1.946E+02                                 F               0         Z-component position of node 10 (blade 1, node 9), m
         31    3.737E+01                                 F               0         X-component position of node 11 (blade 1, node 10), m
         32   -1.910E+01                                 F               0         Y-component position of node 11 (blade 1, node 10), m
         33    1.982E+02                                 F               0         Z-component position of node 11 (blade 1, node 10), m
         34    3.833E+01                                 F               0         X-component position of node 12 (blade 1, node 11), m
         35   -1.999E+01                                 F               0         Y-component position of node 12 (blade 1, node 11), m
         36    2.019E+02                                 F               0         Z-component position of node 12 (blade 1, node 11), m
         37    3.930E+01                                 F               0         X-component position of node 13 (blade 1, node 12), m
         38   -2.089E+01                                 F               0         Y-component position of node 13 (blade 1, node 12), m
         39    2.055E+02                                 F               0         Z-component position of node 13 (blade 1, node 12), m
         40    4.027E+01                                 F               0         X-component position of node 14 (blade 1, node 13), m
         41   -2.178E+01                                 F               0         Y-component position of node 14 (blade 1, node 13), m
         42    2.091E+02                                 F               0         Z-component position of node 14 (blade 1, node 13), m
         43    4.124E+01                                 F               0         X-component position of node 15 (blade 1, node 14), m
         44   -2.267E+01                                 F               0         Y-component position of node 15 (blade 1, node 14), m
         45    2.128E+02                                 F               0         Z-component position of node 15 (blade 1, node 14), m
         46    4.221E+01                                 F               0         X-component position of node 16 (blade 1, node 15), m
         47   -2.357E+01                                 F               0         Y-component position of node 16 (blade 1, node 15), m
         48    2.164E+02                                 F               0         Z-component position of node 16 (blade 1, node 15), m
         49    4.317E+01                                 F               0         X-component position of node 17 (blade 1, node 16), m
         50   -2.446E+01                                 F               0         Y-component position of node 17 (blade 1, node 16), m
         51    2.201E+02                                 F               0         Z-component position of node 17 (blade 1, node 16), m
         52    4.414E+01                                 F               0         X-component position of node 18 (blade 1, node 17), m
         53   -2.535E+01                                 F               0         Y-component position of node 18 (blade 1, node 17), m
         54    2.237E+02                                 F               0         Z-component position of node 18 (blade 1, node 17), m
         55    4.511E+01                                 F               0         X-component position of node 19 (blade 1, node 18), m
         56   -2.625E+01                                 F               0         Y-component position of node 19 (blade 1, node 18), m
         57    2.273E+02                                 F               0         Z-component position of node 19 (blade 1, node 18), m
         58    4.608E+01                                 F               0         X-component position of node 20 (blade 1, node 19), m
         59   -2.714E+01                                 F               0         Y-component position of node 20 (blade 1, node 19), m
         60    2.310E+02                                 F               0         Z-component position of node 20 (blade 1, node 19), m
         61    4.705E+01                                 F               0         X-component position of node 21 (blade 1, node 20), m
         62   -2.803E+01                                 F               0         Y-component position of node 21 (blade 1, node 20), m
         63    2.346E+02                                 F               0         Z-component position of node 21 (blade 1, node 20), m
         64    4.801E+01                                 F               0         X-component position of node 22 (blade 1, node 21), m
         65   -2.892E+01                                 F               0         Y-component position of node 22 (blade 1, node 21), m
         66    2.382E+02                                 F               0         Z-component position of node 22 (blade 1, node 21), m
         67    4.898E+01                                 F               0         X-component position of node 23 (blade 1, node 22), m
         68   -2.982E+01                                 F               0         Y-component position of node 23 (blade 1, node 22), m
         69    2.419E+02                                 F               0         Z-component position of node 23 (blade 1, node 22), m
         70    4.995E+01                                 F               0         X-component position of node 24 (blade 1, node 23), m
         71   -3.071E+01                                 F               0         Y-component position of node 24 (blade 1, node 23), m
         72    2.455E+02                                 F               0         Z-component position of node 24 (blade 1, node 23), m
         73    5.092E+01                                 F               0         X-component position of node 25 (blade 1, node 24), m
         74   -3.160E+01                                 F               0         Y-component position of node 25 (blade 1, node 24), m
         75    2.492E+02                                 F               0         Z-component position of node 25 (blade 1, node 24), m
         76    5.188E+01                                 F               0         X-component position of node 26 (blade 1, node 25), m
         77   -3.250E+01                                 F               0         Y-component position of node 26 (blade 1, node 25), m
         78    2.528E+02                                 F               0         Z-component position of node 26 (blade 1, node 25), m
         79    5.285E+01                                 F               0         X-component position of node 27 (blade 1, node 26), m
         80   -3.339E+01                                 F               0         Y-component position of node 27 (blade 1, node 26), m
         81    2.564E+02                                 F               0         Z-component position of node 27 (blade 1, node 26), m
         82    5.382E+01                                 F               0         X-component position of node 28 (blade 1, node 27), m
         83   -3.428E+01                                 F               0         Y-component position of node 28 (blade 1, node 27), m
         84    2.601E+02                                 F               0         Z-component position of node 28 (blade 1, node 27), m
         85    5.464E+01                                 F               0         X-component position of node 29 (blade 1, node 28), m
         86   -3.504E+01                                 F               0         Y-component position of node 29 (blade 1, node 28), m
         87    2.631E+02                                 F               0         Z-component position of node 29 (blade 1, node 28), m
         88    2.344E+01                                 F               0         X-component position of node 30 (blade 2, node 1), m
         89   -1.110E+01                                 F               0         Y-component position of node 30 (blade 2, node 1), m
         90    1.456E+02                                 F               0         Z-component position of node 30 (blade 2, node 1), m
         91    2.323E+01                                 F               0         X-component position of node 31 (blade 2, node 2), m
         92   -1.207E+01                                 F               0         Y-component position of node 31 (blade 2, node 2), m
         93    1.447E+02                                 F               0         Z-component position of node 31 (blade 2, node 2), m
         94    2.032E+01                                 F               0         X-component position of node 32 (blade 2, node 3), m
         95   -2.526E+01                                 F               0         Y-component position of node 32 (blade 2, node 3), m
         96    1.325E+02                                 F               0         Z-component position of node 32 (blade 2, node 3), m
         97    1.970E+01                                 F               0         X-component position of node 33 (blade 2, node 4), m
         98   -2.807E+01                                 F               0         Y-component position of node 33 (blade 2, node 4), m
         99    1.300E+02                                 F               0         Z-component position of node 33 (blade 2, node 4), m
        100    1.909E+01                                 F               0         X-component position of node 34 (blade 2, node 5), m
        101   -3.089E+01                                 F               0         Y-component position of node 34 (blade 2, node 5), m
        102    1.274E+02                                 F               0         Z-component position of node 34 (blade 2, node 5), m
        103    1.847E+01                                 F               0         X-component position of node 35 (blade 2, node 6), m
        104   -3.370E+01                                 F               0         Y-component position of node 35 (blade 2, node 6), m
        105    1.248E+02                                 F               0         Z-component position of node 35 (blade 2, node 6), m
        106    1.785E+01                                 F               0         X-component position of node 36 (blade 2, node 7), m
        107   -3.651E+01                                 F               0         Y-component position of node 36 (blade 2, node 7), m
        108    1.222E+02                                 F               0         Z-component position of node 36 (blade 2, node 7), m
        109    1.723E+01                                 F               0         X-component position of node 37 (blade 2, node 8), m
        110   -3.932E+01                                 F               0         Y-component position of node 37 (blade 2, node 8), m
        111    1.196E+02                                 F               0         Z-component position of node 37 (blade 2, node 8), m
        112    1.661E+01                                 F               0         X-component position of node 38 (blade 2, node 9), m
        113   -4.213E+01                                 F               0         Y-component position of node 38 (blade 2, node 9), m
        114    1.170E+02                                 F               0         Z-component position of node 38 (blade 2, node 9), m
        115    1.599E+01                                 F               0         X-component position of node 39 (blade 2, node 10), m
        116   -4.495E+01                                 F               0         Y-component position of node 39 (blade 2, node 10), m
        117    1.145E+02                                 F               0         Z-component position of node 39 (blade 2, node 10), m
        118    1.537E+01                                 F               0         X-component position of node 40 (blade 2, node 11), m
        119   -4.776E+01                                 F               0         Y-component position of node 40 (blade 2, node 11), m
        120    1.119E+02                                 F               0         Z-component position of node 40 (blade 2, node 11), m
        121    1.475E+01                                 F               0         X-component position of node 41 (blade 2, node 12), m
        122   -5.057E+01                                 F               0         Y-component position of node 41 (blade 2, node 12), m
        123    1.093E+02                                 F               0         Z-component position of node 41 (blade 2, node 12), m
        124    1.413E+01                                 F               0         X-component position of node 42 (blade 2, node 13), m
        125   -5.338E+01                                 F               0         Y-component position of node 42 (blade 2, node 13), m
        126    1.067E+02                                 F               0         Z-component position of node 42 (blade 2, node 13), m
        127    1.351E+01                                 F               0         X-component position of node 43 (blade 2, node 14), m
        128   -5.619E+01                                 F               0         Y-component position of node 43 (blade 2, node 14), m
        129    1.041E+02                                 F               0         Z-component position of node 43 (blade 2, node 14), m
        130    1.290E+01                                 F               0         X-component position of node 44 (blade 2, node 15), m
        131   -5.900E+01                                 F               0         Y-component position of node 44 (blade 2, node 15), m
        132    1.015E+02                                 F               0         Z-component position of node 44 (blade 2, node 15), m
        133    1.228E+01                                 F               0         X-component position of node 45 (blade 2, node 16), m
        134   -6.182E+01                                 F               0         Y-component position of node 45 (blade 2, node 16), m
        135    9.897E+01                                 F               0         Z-component position of node 45 (blade 2, node 16), m
        136    1.166E+01                                 F               0         X-component position of node 46 (blade 2, node 17), m
        137   -6.463E+01                                 F               0         Y-component position of node 46 (blade 2, node 17), m
        138    9.638E+01                                 F               0         Z-component position of node 46 (blade 2, node 17), m
        139    1.104E+01                                 F               0         X-component position of node 47 (blade 2, node 18), m
        140   -6.744E+01                                 F               0         Y-component position of node 47 (blade 2, node 18), m
        141    9.380E+01                                 F               0         Z-component position of node 47 (blade 2, node 18), m
        142    1.042E+01                                 F               0         X-component position of node 48 (blade 2, node 19), m
        143   -7.025E+01                                 F               0         Y-component position of node 48 (blade 2, node 19), m
        144    9.122E+01                                 F               0         Z-component position of node 48 (blade 2, node 19), m
        145    9.801E+00                                 F               0         X-component position of node 49 (blade 2, node 20), m
        146   -7.306E+01                                 F               0         Y-component position of node 49 (blade 2, node 20), m
        147    8.864E+01                                 F               0         Z-component position of node 49 (blade 2, node 20), m
        148    9.182E+00                                 F               0         X-component position of node 50 (blade 2, node 21), m
        149   -7.587E+01                                 F               0         Y-component position of node 50 (blade 2, node 21), m
        150    8.605E+01                                 F               0         Z-component position of node 50 (blade 2, node 21), m
        151    8.563E+00                                 F               0         X-component position of node 51 (blade 2, node 22), m
        152   -7.869E+01                                 F               0         Y-component position of node 51 (blade 2, node 22), m
        153    8.347E+01                                 F               0         Z-component position of node 51 (blade 2, node 22), m
        154    7.944E+00                                 F               0         X-component position of node 52 (blade 2, node 23), m
        155   -8.150E+01                                 F               0         Y-component position of node 52 (blade 2, node 23), m
        156    8.089E+01                                 F               0         Z-component position of node 52 (blade 2, node 23), m
        157    7.325E+00                                 F               0         X-component position of node 53 (blade 2, node 24), m
        158   -8.431E+01                                 F               0         Y-component position of node 53 (blade 2, node 24), m
        159    7.830E+01                                 F               0         Z-component position of node 53 (blade 2, node 24), m
        160    6.706E+00                                 F               0         X-component position of node 54 (blade 2, node 25), m
        161   -8.712E+01                                 F               0         Y-component position of node 54 (blade 2, node 25), m
        162    7.572E+01                                 F               0         Z-component position of node 54 (blade 2, node 25), m
        163    6.087E+00                                 F               0         X-component position of node 55 (blade 2, node 26), m
        164   -8.993E+01                                 F               0         Y-component position of node 55 (blade 2, node 26), m
        165    7.314E+01                                 F               0         Z-component position of node 55 (blade 2, node 26), m
        166    5.468E+00                                 F               0         X-component position of node 56 (blade 2, node 27), m
        167   -9.275E+01                                 F               0         Y-component position of node 56 (blade 2, node 27), m
        168    7.056E+01                                 F               0         Z-component position of node 56 (blade 2, node 27), m
        169    4.943E+00                                 F               0         X-component position of node 57 (blade 2, node 28), m
        170   -9.513E+01                                 F               0         Y-component position of node 57 (blade 2, node 28), m
        171    6.837E+01                                 F               0         Z-component position of node 57 (blade 2, node 28), m
        172    2.383E+01                                 F               0         X-component position of node 58 (blade 3, node 1), m
        173   -1.761E+00                                 F               0         Y-component position of node 58 (blade 3, node 1), m
        174    1.477E+02                                 F               0         Z-component position of node 58 (blade 3, node 1), m
        175    2.371E+01                                 F               0         X-component position of node 59 (blade 3, node 2), m
        176   -4.827E-01                                 F               0         Y-component position of node 59 (blade 3, node 2), m
        177    1.474E+02                                 F               0         Z-component position of node 59 (blade 3, node 2), m
        178    2.207E+01                                 F               0         X-component position of node 60 (blade 3, node 3), m
        179    1.691E+01                                 F               0         Y-component position of node 60 (blade 3, node 3), m
        180    1.424E+02                                 F               0         Z-component position of node 60 (blade 3, node 3), m
        181    2.172E+01                                 F               0         X-component position of node 61 (blade 3, node 4), m
        182    2.061E+01                                 F               0         Y-component position of node 61 (blade 3, node 4), m
        183    1.414E+02                                 F               0         Z-component position of node 61 (blade 3, node 4), m
        184    2.137E+01                                 F               0         X-component position of node 62 (blade 3, node 5), m
        185    2.432E+01                                 F               0         Y-component position of node 62 (blade 3, node 5), m
        186    1.403E+02                                 F               0         Z-component position of node 62 (blade 3, node 5), m
        187    2.102E+01                                 F               0         X-component position of node 63 (blade 3, node 6), m
        188    2.802E+01                                 F               0         Y-component position of node 63 (blade 3, node 6), m
        189    1.393E+02                                 F               0         Z-component position of node 63 (blade 3, node 6), m
        190    2.068E+01                                 F               0         X-component position of node 64 (blade 3, node 7), m
        191    3.173E+01                                 F               0         Y-component position of node 64 (blade 3, node 7), m
        192    1.382E+02                                 F               0         Z-component position of node 64 (blade 3, node 7), m
        193    2.033E+01                                 F               0         X-component position of node 65 (blade 3, node 8), m
        194    3.543E+01                                 F               0         Y-component position of node 65 (blade 3, node 8), m
        195    1.372E+02                                 F               0         Z-component position of node 65 (blade 3, node 8), m
        196    1.998E+01                                 F               0         X-component position of node 66 (blade 3, node 9), m
        197    3.914E+01                                 F               0         Y-component position of node 66 (blade 3, node 9), m
        198    1.361E+02                                 F               0         Z-component position of node 66 (blade 3, node 9), m
        199    1.963E+01                                 F               0         X-component position of node 67 (blade 3, node 10), m
        200    4.284E+01                                 F               0         Y-component position of node 67 (blade 3, node 10), m
        201    1.351E+02                                 F               0         Z-component position of node 67 (blade 3, node 10), m
        202    1.928E+01                                 F               0         X-component position of node 68 (blade 3, node 11), m
        203    4.655E+01                                 F               0         Y-component position of node 68 (blade 3, node 11), m
        204    1.340E+02                                 F               0         Z-component position of node 68 (blade 3, node 11), m
        205    1.893E+01                                 F               0         X-component position of node 69 (blade 3, node 12), m
        206    5.025E+01                                 F               0         Y-component position of node 69 (blade 3, node 12), m
        207    1.329E+02                                 F               0         Z-component position of node 69 (blade 3, node 12), m
        208    1.858E+01                                 F               0         X-component position of node 70 (blade 3, node 13), m
        209    5.396E+01                                 F               0         Y-component position of node 70 (blade 3, node 13), m
        210    1.319E+02                                 F               0         Z-component position of node 70 (blade 3, node 13), m
        211    1.823E+01                                 F               0         X-component position of node 71 (blade 3, node 14), m