
Linearized model: Predictions were generated on 30-Jan-2024 at 18:20:32 using OpenFAST, compiled as a 64-bit application using single precision at commit v3.5.1
 linked with  NWTC Subroutine Library; ElastoDyn; InflowWind; AeroDyn; ServoDyn; HydroDyn; MAP++ (<1.20.10>, <Oct-20-2023>)

Description from the FAST input file: CCT-9 Campign 4 model. Input files to be run with OpenFAST 3.5.0. GitHub branch from Lu Wang (https://github.com/luwang00/openfast/tree/dev) compiled on March 7, 2023.

Simulation information:
   Simulation time:                   507.4250 s
   Rotor Speed:                         0.8793 rad/s
   Azimuth:                             5.4068 rad
   Wind Speed:                         10.0000 m/s
   Number of continuous states:         0
   Number of discrete states:           0
   Number of constraint states:         0
   Number of inputs:                  303
   Number of outputs:                   1
   Jacobians included in this file?    No

Order of inputs:
     Column   Operating Point                     Rotating Frame? Derivative Order Description
   ---------- ---------------                     --------------- ---------------- -----------
          1   -1.080E+01                                 F               0         X-component position of node 1 (hub), m
          2    0.000E+00                                 F               0         Y-component position of node 1 (hub), m
          3    1.497E+02                                 F               0         Z-component position of node 1 (hub), m
          4    1.608E+01                                 F               0         X-component position of node 2 (blade 1, node 1), m
          5   -2.698E+00                                 F               0         Y-component position of node 2 (blade 1, node 1), m
          6    1.533E+02                                 F               0         Z-component position of node 2 (blade 1, node 1), m
          7    1.626E+01                                 F               0         X-component position of node 3 (blade 1, node 2), m
          8   -1.709E+00                                 F               0         Y-component position of node 3 (blade 1, node 2), m
          9    1.542E+02                                 F               0         Z-component position of node 3 (blade 1, node 2), m
         10    1.873E+01                                 F               0         X-component position of node 4 (blade 1, node 3), m
         11    1.175E+01                                 F               0         Y-component position of node 4 (blade 1, node 3), m
         12    1.661E+02                                 F               0         Z-component position of node 4 (blade 1, node 3), m
         13    1.925E+01                                 F               0         X-component position of node 5 (blade 1, node 4), m
         14    1.462E+01                                 F               0         Y-component position of node 5 (blade 1, node 4), m
         15    1.687E+02                                 F               0         Z-component position of node 5 (blade 1, node 4), m
         16    1.978E+01                                 F               0         X-component position of node 6 (blade 1, node 5), m
         17    1.748E+01                                 F               0         Y-component position of node 6 (blade 1, node 5), m
         18    1.712E+02                                 F               0         Z-component position of node 6 (blade 1, node 5), m
         19    2.030E+01                                 F               0         X-component position of node 7 (blade 1, node 6), m
         20    2.035E+01                                 F               0         Y-component position of node 7 (blade 1, node 6), m
         21    1.738E+02                                 F               0         Z-component position of node 7 (blade 1, node 6), m
         22    2.083E+01                                 F               0         X-component position of node 8 (blade 1, node 7), m
         23    2.322E+01                                 F               0         Y-component position of node 8 (blade 1, node 7), m
         24    1.763E+02                                 F               0         Z-component position of node 8 (blade 1, node 7), m
         25    2.136E+01                                 F               0         X-component position of node 9 (blade 1, node 8), m
         26    2.609E+01                                 F               0         Y-component position of node 9 (blade 1, node 8), m
         27    1.789E+02                                 F               0         Z-component position of node 9 (blade 1, node 8), m
         28    2.188E+01                                 F               0         X-component position of node 10 (blade 1, node 9), m
         29    2.895E+01                                 F               0         Y-component position of node 10 (blade 1, node 9), m
         30    1.814E+02                                 F               0         Z-component position of node 10 (blade 1, node 9), m
         31    2.241E+01                                 F               0         X-component position of node 11 (blade 1, node 10), m
         32    3.182E+01                                 F               0         Y-component position of node 11 (blade 1, node 10), m
         33    1.839E+02                                 F               0         Z-component position of node 11 (blade 1, node 10), m
         34    2.293E+01                                 F               0         X-component position of node 12 (blade 1, node 11), m
         35    3.469E+01                                 F               0         Y-component position of node 12 (blade 1, node 11), m
         36    1.865E+02                                 F               0         Z-component position of node 12 (blade 1, node 11), m
         37    2.346E+01                                 F               0         X-component position of node 13 (blade 1, node 12), m
         38    3.755E+01                                 F               0         Y-component position of node 13 (blade 1, node 12), m
         39    1.890E+02                                 F               0         Z-component position of node 13 (blade 1, node 12), m
         40    2.398E+01                                 F               0         X-component position of node 14 (blade 1, node 13), m
         41    4.042E+01                                 F               0         Y-component position of node 14 (blade 1, node 13), m
         42    1.916E+02                                 F               0         Z-component position of node 14 (blade 1, node 13), m
         43    2.451E+01                                 F               0         X-component position of node 15 (blade 1, node 14), m
         44    4.329E+01                                 F               0         Y-component position of node 15 (blade 1, node 14), m
         45    1.941E+02                                 F               0         Z-component position of node 15 (blade 1, node 14), m
         46    2.504E+01                                 F               0         X-component position of node 16 (blade 1, node 15), m
         47    4.616E+01                                 F               0         Y-component position of node 16 (blade 1, node 15), m
         48    1.966E+02                                 F               0         Z-component position of node 16 (blade 1, node 15), m
         49    2.556E+01                                 F               0         X-component position of node 17 (blade 1, node 16), m
         50    4.902E+01                                 F               0         Y-component position of node 17 (blade 1, node 16), m
         51    1.992E+02                                 F               0         Z-component position of node 17 (blade 1, node 16), m
         52    2.609E+01                                 F               0         X-component position of node 18 (blade 1, node 17), m
         53    5.189E+01                                 F               0         Y-component position of node 18 (blade 1, node 17), m
         54    2.017E+02                                 F               0         Z-component position of node 18 (blade 1, node 17), m
         55    2.661E+01                                 F               0         X-component position of node 19 (blade 1, node 18), m
         56    5.476E+01                                 F               0         Y-component position of node 19 (blade 1, node 18), m
         57    2.043E+02                                 F               0         Z-component position of node 19 (blade 1, node 18), m
         58    2.714E+01                                 F               0         X-component position of node 20 (blade 1, node 19), m
         59    5.763E+01                                 F               0         Y-component position of node 20 (blade 1, node 19), m
         60    2.068E+02                                 F               0         Z-component position of node 20 (blade 1, node 19), m
         61    2.766E+01                                 F               0         X-component position of node 21 (blade 1, node 20), m
         62    6.049E+01                                 F               0         Y-component position of node 21 (blade 1, node 20), m
         63    2.094E+02                                 F               0         Z-component position of node 21 (blade 1, node 20), m
         64    2.819E+01                                 F               0         X-component position of node 22 (blade 1, node 21), m
         65    6.336E+01                                 F               0         Y-component position of node 22 (blade 1, node 21), m
         66    2.119E+02                                 F               0         Z-component position of node 22 (blade 1, node 21), m
         67    2.871E+01                                 F               0         X-component position of node 23 (blade 1, node 22), m
         68    6.623E+01                                 F               0         Y-component position of node 23 (blade 1, node 22), m
         69    2.144E+02                                 F               0         Z-component position of node 23 (blade 1, node 22), m
         70    2.924E+01                                 F               0         X-component position of node 24 (blade 1, node 23), m
         71    6.910E+01                                 F               0         Y-component position of node 24 (blade 1, node 23), m
         72    2.170E+02                                 F               0         Z-component position of node 24 (blade 1, node 23), m
         73    2.977E+01                                 F               0         X-component position of node 25 (blade 1, node 24), m
         74    7.196E+01                                 F               0         Y-component position of node 25 (blade 1, node 24), m
         75    2.195E+02                                 F               0         Z-component position of node 25 (blade 1, node 24), m
         76    3.029E+01                                 F               0         X-component position of node 26 (blade 1, node 25), m
         77    7.483E+01                                 F               0         Y-component position of node 26 (blade 1, node 25), m
         78    2.221E+02                                 F               0         Z-component position of node 26 (blade 1, node 25), m
         79    3.082E+01                                 F               0         X-component position of node 27 (blade 1, node 26), m
         80    7.770E+01                                 F               0         Y-component position of node 27 (blade 1, node 26), m
         81    2.246E+02                                 F               0         Z-component position of node 27 (blade 1, node 26), m
         82    3.134E+01                                 F               0         X-component position of node 28 (blade 1, node 27), m
         83    8.056E+01                                 F               0         Y-component position of node 28 (blade 1, node 27), m
         84    2.272E+02                                 F               0         Z-component position of node 28 (blade 1, node 27), m
         85    3.179E+01                                 F               0         X-component position of node 29 (blade 1, node 28), m
         86    8.300E+01                                 F               0         Y-component position of node 29 (blade 1, node 28), m
         87    2.293E+02                                 F               0         Z-component position of node 29 (blade 1, node 28), m
         88    1.577E+01                                 F               0         X-component position of node 30 (blade 2, node 1), m
         89   -1.208E+01                                 F               0         Y-component position of node 30 (blade 2, node 1), m
         90    1.513E+02                                 F               0         Z-component position of node 30 (blade 2, node 1), m
         91    1.588E+01                                 F               0         X-component position of node 31 (blade 2, node 2), m
         92   -1.335E+01                                 F               0         Y-component position of node 31 (blade 2, node 2), m
         93    1.517E+02                                 F               0         Z-component position of node 31 (blade 2, node 2), m
         94    1.732E+01                                 F               0         X-component position of node 32 (blade 2, node 3), m
         95   -3.063E+01                                 F               0         Y-component position of node 32 (blade 2, node 3), m
         96    1.571E+02                                 F               0         Z-component position of node 32 (blade 2, node 3), m
         97    1.763E+01                                 F               0         X-component position of node 33 (blade 2, node 4), m
         98   -3.431E+01                                 F               0         Y-component position of node 33 (blade 2, node 4), m
         99    1.583E+02                                 F               0         Z-component position of node 33 (blade 2, node 4), m
        100    1.794E+01                                 F               0         X-component position of node 34 (blade 2, node 5), m
        101   -3.799E+01                                 F               0         Y-component position of node 34 (blade 2, node 5), m
        102    1.594E+02                                 F               0         Z-component position of node 34 (blade 2, node 5), m
        103    1.825E+01                                 F               0         X-component position of node 35 (blade 2, node 6), m
        104   -4.167E+01                                 F               0         Y-component position of node 35 (blade 2, node 6), m
        105    1.606E+02                                 F               0         Z-component position of node 35 (blade 2, node 6), m
        106    1.856E+01                                 F               0         X-component position of node 36 (blade 2, node 7), m
        107   -4.535E+01                                 F               0         Y-component position of node 36 (blade 2, node 7), m
        108    1.617E+02                                 F               0         Z-component position of node 36 (blade 2, node 7), m
        109    1.887E+01                                 F               0         X-component position of node 37 (blade 2, node 8), m
        110   -4.903E+01                                 F               0         Y-component position of node 37 (blade 2, node 8), m
        111    1.628E+02                                 F               0         Z-component position of node 37 (blade 2, node 8), m
        112    1.918E+01                                 F               0         X-component position of node 38 (blade 2, node 9), m
        113   -5.271E+01                                 F               0         Y-component position of node 38 (blade 2, node 9), m
        114    1.640E+02                                 F               0         Z-component position of node 38 (blade 2, node 9), m
        115    1.948E+01                                 F               0         X-component position of node 39 (blade 2, node 10), m
        116   -5.639E+01                                 F               0         Y-component position of node 39 (blade 2, node 10), m
        117    1.651E+02                                 F               0         Z-component position of node 39 (blade 2, node 10), m
        118    1.979E+01                                 F               0         X-component position of node 40 (blade 2, node 11), m
        119   -6.007E+01                                 F               0         Y-component position of node 40 (blade 2, node 11), m
        120    1.663E+02                                 F               0         Z-component position of node 40 (blade 2, node 11), m
        121    2.010E+01                                 F               0         X-component position of node 41 (blade 2, node 12), m
        122   -6.376E+01                                 F               0         Y-component position of node 41 (blade 2, node 12), m
        123    1.674E+02                                 F               0         Z-component position of node 41 (blade 2, node 12), m
        124    2.041E+01                                 F               0         X-component position of node 42 (blade 2, node 13), m
        125   -6.744E+01                                 F               0         Y-component position of node 42 (blade 2, node 13), m
        126    1.686E+02                                 F               0         Z-component position of node 42 (blade 2, node 13), m
        127    2.072E+01                                 F               0         X-component position of node 43 (blade 2, node 14), m
        128   -7.112E+01                                 F               0         Y-component position of node 43 (blade 2, node 14), m
        129    1.697E+02                                 F               0         Z-component position of node 43 (blade 2, node 14), m
        130    2.103E+01                                 F               0         X-component position of node 44 (blade 2, node 15), m
        131   -7.480E+01                                 F               0         Y-component position of node 44 (blade 2, node 15), m
        132    1.709E+02                                 F               0         Z-component position of node 44 (blade 2, node 15), m
        133    2.134E+01                                 F               0         X-component position of node 45 (blade 2, node 16), m
        134   -7.848E+01                                 F               0         Y-component position of node 45 (blade 2, node 16), m
        135    1.720E+02                                 F               0         Z-component position of node 45 (blade 2, node 16), m
        136    2.165E+01                                 F               0         X-component position of node 46 (blade 2, node 17), m
        137   -8.216E+01                                 F               0         Y-component position of node 46 (blade 2, node 17), m
        138    1.732E+02                                 F               0         Z-component position of node 46 (blade 2, node 17), m
        139    2.195E+01                                 F               0         X-component position of node 47 (blade 2, node 18), m
        140   -8.584E+01                                 F               0         Y-component position of node 47 (blade 2, node 18), m
        141    1.743E+02                                 F               0         Z-component position of node 47 (blade 2, node 18), m
        142    2.226E+01                                 F               0         X-component position of node 48 (blade 2, node 19), m
        143   -8.952E+01                                 F               0         Y-component position of node 48 (blade 2, node 19), m
        144    1.755E+02                                 F               0         Z-component position of node 48 (blade 2, node 19), m
        145    2.257E+01                                 F               0         X-component position of node 49 (blade 2, node 20), m
        146   -9.320E+01                                 F               0         Y-component position of node 49 (blade 2, node 20), m
        147    1.766E+02                                 F               0         Z-component position of node 49 (blade 2, node 20), m
        148    2.288E+01                                 F               0         X-component position of node 50 (blade 2, node 21), m
        149   -9.688E+01                                 F               0         Y-component position of node 50 (blade 2, node 21), m
        150    1.777E+02                                 F               0         Z-component position of node 50 (blade 2, node 21), m
        151    2.319E+01                                 F               0         X-component position of node 51 (blade 2, node 22), m
        152   -1.006E+02                                 F               0         Y-component position of node 51 (blade 2, node 22), m
        153    1.789E+02                                 F               0         Z-component position of node 51 (blade 2, node 22), m
        154    2.350E+01                                 F               0         X-component position of node 52 (blade 2, node 23), m
        155   -1.042E+02                                 F               0         Y-component position of node 52 (blade 2, node 23), m
        156    1.800E+02                                 F               0         Z-component position of node 52 (blade 2, node 23), m
        157    2.381E+01                                 F               0         X-component position of node 53 (blade 2, node 24), m
        158   -1.079E+02                                 F               0         Y-component position of node 53 (blade 2, node 24), m
        159    1.812E+02                                 F               0         Z-component position of node 53 (blade 2, node 24), m
        160    2.411E+01                                 F               0         X-component position of node 54 (blade 2, node 25), m
        161   -1.116E+02                                 F               0         Y-component position of node 54 (blade 2, node 25), m
        162    1.823E+02                                 F               0         Z-component position of node 54 (blade 2, node 25), m
        163    2.442E+01                                 F               0         X-component position of node 55 (blade 2, node 26), m
        164   -1.153E+02                                 F               0         Y-component position of node 55 (blade 2, node 26), m
        165    1.835E+02                                 F               0         Z-component position of node 55 (blade 2, node 26), m
        166    2.473E+01                                 F               0         X-component position of node 56 (blade 2, node 27), m
        167   -1.190E+02                                 F               0         Y-component position of node 56 (blade 2, node 27), m
        168    1.846E+02                                 F               0         Z-component position of node 56 (blade 2, node 27), m
        169    2.499E+01                                 F               0         X-component position of node 57 (blade 2, node 28), m
        170   -1.221E+02                                 F               0         Y-component position of node 57 (blade 2, node 28), m
        171    1.856E+02                                 F               0         Z-component position of node 57 (blade 2, node 28), m
        172    1.413E+01                                 F               0         X-component position of node 58 (blade 3, node 1), m
        173   -5.640E+00                                 F               0         Y-component position of node 58 (blade 3, node 1), m
        174    1.444E+02                                 F               0         Z-component position of node 58 (blade 3, node 1), m
        175    1.384E+01                                 F               0         X-component position of node 59 (blade 3, node 2), m
        176   -5.359E+00                                 F               0         Y-component position of node 59 (blade 3, node 2), m
        177    1.431E+02                                 F               0         Z-component position of node 59 (blade 3, node 2), m
        178    9.929E+00                                 F               0         X-component position of node 60 (blade 3, node 3), m
        179   -1.540E+00                                 F               0         Y-component position of node 60 (blade 3, node 3), m
        180    1.258E+02                                 F               0         Z-component position of node 60 (blade 3, node 3), m
        181    9.095E+00                                 F               0         X-component position of node 61 (blade 3, node 4), m
        182   -7.261E-01                                 F               0         Y-component position of node 61 (blade 3, node 4), m
        183    1.221E+02                                 F               0         Z-component position of node 61 (blade 3, node 4), m
        184    8.260E+00                                 F               0         X-component position of node 62 (blade 3, node 5), m
        185    8.781E-02                                 F               0         Y-component position of node 62 (blade 3, node 5), m
        186    1.185E+02                                 F               0         Z-component position of node 62 (blade 3, node 5), m
        187    7.426E+00                                 F               0         X-component position of node 63 (blade 3, node 6), m
        188    9.015E-01                                 F               0         Y-component position of node 63 (blade 3, node 6), m
        189    1.148E+02                                 F               0         Z-component position of node 63 (blade 3, node 6), m
        190    6.592E+00                                 F               0         X-component position of node 64 (blade 3, node 7), m
        191    1.715E+00                                 F               0         Y-component position of node 64 (blade 3, node 7), m
        192    1.111E+02                                 F               0         Z-component position of node 64 (blade 3, node 7), m
        193    5.758E+00                                 F               0         X-component position of node 65 (blade 3, node 8), m
        194    2.529E+00                                 F               0         Y-component position of node 65 (blade 3, node 8), m
        195    1.074E+02                                 F               0         Z-component position of node 65 (blade 3, node 8), m
        196    4.924E+00                                 F               0         X-component position of node 66 (blade 3, node 9), m
        197    3.343E+00                                 F               0         Y-component position of node 66 (blade 3, node 9), m
        198    1.037E+02                                 F               0         Z-component position of node 66 (blade 3, node 9), m
        199    4.089E+00                                 F               0         X-component position of node 67 (blade 3, node 10), m
        200    4.157E+00                                 F               0         Y-component position of node 67 (blade 3, node 10), m
        201    1.000E+02                                 F               0         Z-component position of node 67 (blade 3, node 10), m
        202    3.255E+00                                 F               0         X-component position of node 68 (blade 3, node 11), m
        203    4.970E+00                                 F               0         Y-component position of node 68 (blade 3, node 11), m
        204    9.633E+01                                 F               0         Z-component position of node 68 (blade 3, node 11), m
        205    2.421E+00                                 F               0         X-component position of node 69 (blade 3, node 12), m
        206    5.784E+00                                 F               0         Y-component position of node 69 (blade 3, node 12), m
        207    9.264E+01                                 F               0         Z-component position of node 69 (blade 3, node 12), m
        208    1.587E+00                                 F               0         X-component position of node 70 (blade 3, node 13), m
        209    6.598E+00                                 F               0         Y-component position of node 70 (blade 3, node 13), m
        210    8.895E+01                                 F               0         Z-component position of node 70 (blade 3, node 13), m
        211    7.526E-01                                 F               0         X-component position of node 71 (blade 3, node 14), m