
Linearized model: Predictions were generated on 12-Feb-2024 at 18:31:58 using OpenFAST, compiled as a 64-bit application using single precision at commit v3.5.1
 linked with  NWTC Subroutine Library; ElastoDyn; InflowWind; AeroDyn; ServoDyn; HydroDyn; MAP++ (<1.20.10>, <Oct-20-2023>)

Description from the FAST input file: CCT-9 Campign 4 model. Input files to be run with OpenFAST 3.5.0. GitHub branch from Lu Wang (https://github.com/luwang00/openfast/tree/dev) compiled on March 7, 2023.

Simulation information:
   Simulation time:                  1000.5000 s
   Rotor Speed:                         1.0459 rad/s
   Azimuth:                             0.1902 rad
   Wind Speed:                         12.0000 m/s
   Number of continuous states:         0
   Number of discrete states:           0
   Number of constraint states:         0
   Number of inputs:                 1746
   Number of outputs:                   4
   Jacobians included in this file?    No

Order of inputs:
     Column   Operating Point                     Rotating Frame? Derivative Order Description
   ---------- ---------------                     --------------- ---------------- -----------
          1    1.518E+01                                 F               0         Tower X translation displacement, node 1, m
          2   -1.049E+00                                 F               0         Tower Y translation displacement, node 1, m
          3   -4.763E-01                                 F               0         Tower Z translation displacement, node 1, m
          4    1.705E+01                                 F               0         Tower X translation displacement, node 2, m
          5   -1.600E+00                                 F               0         Tower Y translation displacement, node 2, m
          6   -6.301E-01                                 F               0         Tower Z translation displacement, node 2, m
          7    1.891E+01                                 F               0         Tower X translation displacement, node 3, m
          8   -2.151E+00                                 F               0         Tower Y translation displacement, node 3, m
          9   -7.840E-01                                 F               0         Tower Z translation displacement, node 3, m
         10    2.077E+01                                 F               0         Tower X translation displacement, node 4, m
         11   -2.702E+00                                 F               0         Tower Y translation displacement, node 4, m
         12   -9.378E-01                                 F               0         Tower Z translation displacement, node 4, m
         13    2.264E+01                                 F               0         Tower X translation displacement, node 5, m
         14   -3.253E+00                                 F               0         Tower Y translation displacement, node 5, m
         15   -1.092E+00                                 F               0         Tower Z translation displacement, node 5, m
         16    2.450E+01                                 F               0         Tower X translation displacement, node 6, m
         17   -3.805E+00                                 F               0         Tower Y translation displacement, node 6, m
         18   -1.245E+00                                 F               0         Tower Z translation displacement, node 6, m
         19    2.637E+01                                 F               0         Tower X translation displacement, node 7, m
         20   -4.356E+00                                 F               0         Tower Y translation displacement, node 7, m
         21   -1.399E+00                                 F               0         Tower Z translation displacement, node 7, m
         22    2.823E+01                                 F               0         Tower X translation displacement, node 8, m
         23   -4.907E+00                                 F               0         Tower Y translation displacement, node 8, m
         24   -1.553E+00                                 F               0         Tower Z translation displacement, node 8, m
         25    3.009E+01                                 F               0         Tower X translation displacement, node 9, m
         26   -5.458E+00                                 F               0         Tower Y translation displacement, node 9, m
         27   -1.707E+00                                 F               0         Tower Z translation displacement, node 9, m
         28    3.196E+01                                 F               0         Tower X translation displacement, node 10, m
         29   -6.009E+00                                 F               0         Tower Y translation displacement, node 10, m
         30   -1.861E+00                                 F               0         Tower Z translation displacement, node 10, m
         31    3.382E+01                                 F               0         Tower X translation displacement, node 11, m
         32   -6.560E+00                                 F               0         Tower Y translation displacement, node 11, m
         33   -2.015E+00                                 F               0         Tower Z translation displacement, node 11, m
         34    9.885E-01,  1.462E-02, -1.503E-01         F               0         Tower X orientation angle, node 1, rad
         35   -7.729E-03,  9.989E-01,  4.630E-02         F               0         Tower Y orientation angle, node 1, rad
         36    1.509E-01, -4.461E-02,  9.875E-01         F               0         Tower Z orientation angle, node 1, rad
         37    9.885E-01,  1.462E-02, -1.503E-01         F               0         Tower X orientation angle, node 2, rad
         38   -7.729E-03,  9.989E-01,  4.630E-02         F               0         Tower Y orientation angle, node 2, rad
         39    1.509E-01, -4.461E-02,  9.875E-01         F               0         Tower Z orientation angle, node 2, rad
         40    9.885E-01,  1.462E-02, -1.503E-01         F               0         Tower X orientation angle, node 3, rad
         41   -7.729E-03,  9.989E-01,  4.630E-02         F               0         Tower Y orientation angle, node 3, rad
         42    1.509E-01, -4.461E-02,  9.875E-01         F               0         Tower Z orientation angle, node 3, rad
         43    9.885E-01,  1.462E-02, -1.503E-01         F               0         Tower X orientation angle, node 4, rad
         44   -7.729E-03,  9.989E-01,  4.630E-02         F               0         Tower Y orientation angle, node 4, rad
         45    1.509E-01, -4.461E-02,  9.875E-01         F               0         Tower Z orientation angle, node 4, rad
         46    9.885E-01,  1.462E-02, -1.503E-01         F               0         Tower X orientation angle, node 5, rad
         47   -7.729E-03,  9.989E-01,  4.630E-02         F               0         Tower Y orientation angle, node 5, rad
         48    1.509E-01, -4.461E-02,  9.875E-01         F               0         Tower Z orientation angle, node 5, rad
         49    9.885E-01,  1.462E-02, -1.503E-01         F               0         Tower X orientation angle, node 6, rad
         50   -7.729E-03,  9.989E-01,  4.630E-02         F               0         Tower Y orientation angle, node 6, rad
         51    1.509E-01, -4.461E-02,  9.875E-01         F               0         Tower Z orientation angle, node 6, rad
         52    9.885E-01,  1.462E-02, -1.503E-01         F               0         Tower X orientation angle, node 7, rad
         53   -7.729E-03,  9.989E-01,  4.630E-02         F               0         Tower Y orientation angle, node 7, rad
         54    1.509E-01, -4.461E-02,  9.875E-01         F               0         Tower Z orientation angle, node 7, rad
         55    9.885E-01,  1.462E-02, -1.503E-01         F               0         Tower X orientation angle, node 8, rad
         56   -7.729E-03,  9.989E-01,  4.630E-02         F               0         Tower Y orientation angle, node 8, rad
         57    1.509E-01, -4.461E-02,  9.875E-01         F               0         Tower Z orientation angle, node 8, rad
         58    9.885E-01,  1.462E-02, -1.503E-01         F               0         Tower X orientation angle, node 9, rad
         59   -7.729E-03,  9.989E-01,  4.630E-02         F               0         Tower Y orientation angle, node 9, rad
         60    1.509E-01, -4.461E-02,  9.875E-01         F               0         Tower Z orientation angle, node 9, rad
         61    9.885E-01,  1.462E-02, -1.503E-01         F               0         Tower X orientation angle, node 10, rad
         62   -7.729E-03,  9.989E-01,  4.630E-02         F               0         Tower Y orientation angle, node 10, rad
         63    1.509E-01, -4.461E-02,  9.875E-01         F               0         Tower Z orientation angle, node 10, rad
         64    9.885E-01,  1.462E-02, -1.503E-01         F               0         Tower X orientation angle, node 11, rad
         65   -7.729E-03,  9.989E-01,  4.630E-02         F               0         Tower Y orientation angle, node 11, rad
         66    1.509E-01, -4.461E-02,  9.875E-01         F               0         Tower Z orientation angle, node 11, rad
         67   -1.192E-03                                 F               0         Tower X translation velocity, node 1, m/s
         68   -8.172E-03                                 F               0         Tower Y translation velocity, node 1, m/s
         69   -3.005E-03                                 F               0         Tower Z translation velocity, node 1, m/s
         70   -1.714E-03                                 F               0         Tower X translation velocity, node 2, m/s
         71   -1.380E-02                                 F               0         Tower Y translation velocity, node 2, m/s
         72   -3.180E-03                                 F               0         Tower Z translation velocity, node 2, m/s
         73   -2.237E-03                                 F               0         Tower X translation velocity, node 3, m/s
         74   -1.943E-02                                 F               0         Tower Y translation velocity, node 3, m/s
         75   -3.354E-03                                 F               0         Tower Z translation velocity, node 3, m/s
         76   -2.759E-03                                 F               0         Tower X translation velocity, node 4, m/s
         77   -2.506E-02                                 F               0         Tower Y translation velocity, node 4, m/s
         78   -3.529E-03                                 F               0         Tower Z translation velocity, node 4, m/s
         79   -3.282E-03                                 F               0         Tower X translation velocity, node 5, m/s
         80   -3.069E-02                                 F               0         Tower Y translation velocity, node 5, m/s
         81   -3.703E-03                                 F               0         Tower Z translation velocity, node 5, m/s
         82   -3.804E-03                                 F               0         Tower X translation velocity, node 6, m/s
         83   -3.633E-02                                 F               0         Tower Y translation velocity, node 6, m/s
         84   -3.878E-03                                 F               0         Tower Z translation velocity, node 6, m/s
         85   -4.327E-03                                 F               0         Tower X translation velocity, node 7, m/s
         86   -4.196E-02                                 F               0         Tower Y translation velocity, node 7, m/s
         87   -4.052E-03                                 F               0         Tower Z translation velocity, node 7, m/s
         88   -4.849E-03                                 F               0         Tower X translation velocity, node 8, m/s
         89   -4.759E-02                                 F               0         Tower Y translation velocity, node 8, m/s
         90   -4.227E-03                                 F               0         Tower Z translation velocity, node 8, m/s
         91   -5.372E-03                                 F               0         Tower X translation velocity, node 9, m/s
         92   -5.322E-02                                 F               0         Tower Y translation velocity, node 9, m/s
         93   -4.401E-03                                 F               0         Tower Z translation velocity, node 9, m/s
         94   -5.894E-03                                 F               0         Tower X translation velocity, node 10, m/s
         95   -5.885E-02                                 F               0         Tower Y translation velocity, node 10, m/s
         96   -4.576E-03                                 F               0         Tower Z translation velocity, node 10, m/s
         97   -6.417E-03                                 F               0         Tower X translation velocity, node 11, m/s
         98   -6.448E-02                                 F               0         Tower Y translation velocity, node 11, m/s
         99   -4.750E-03                                 F               0         Tower Z translation velocity, node 11, m/s
        100    3.513E+01                                 F               0         Hub X translation displacement, node 1, m
        101   -7.068E+00                                 F               0         Hub Y translation displacement, node 1, m
        102   -4.886E-01                                 F               0         Hub Z translation displacement, node 1, m
        103    9.673E-01,  1.920E-02, -2.527E-01         F               0         Hub X orientation angle, node 1, rad
        104    4.031E-02,  9.728E-01,  2.282E-01         F               0         Hub Y orientation angle, node 1, rad
        105    2.502E-01, -2.309E-01,  9.402E-01         F               0         Hub Z orientation angle, node 1, rad
        106    1.012E+00                                 F               0         Hub X rotation velocity, node 1, rad/s
        107    2.004E-02                                 F               0         Hub Y rotation velocity, node 1, rad/s
        108   -2.644E-01                                 F               0         Hub Z rotation velocity, node 1, rad/s
        109    9.657E-01, -9.667E-03, -2.594E-01         F               0         Blade root 1 X orientation angle, node 1, rad
        110    6.899E-02,  9.729E-01,  2.206E-01         F               0         Blade root 1 Y orientation angle, node 1, rad
        111    2.502E-01, -2.309E-01,  9.402E-01         F               0         Blade root 1 Z orientation angle, node 1, rad
        112    9.611E-01,  3.955E-02, -2.734E-01         F               0         Blade root 2 X orientation angle, node 1, rad
        113    2.252E-01, -6.855E-01,  6.924E-01         F               0         Blade root 2 Y orientation angle, node 1, rad
        114   -1.600E-01, -7.270E-01, -6.677E-01         F               0         Blade root 2 Z orientation angle, node 1, rad
        115    9.739E-01,  2.769E-02, -2.251E-01         F               0         Blade root 3 X orientation angle, node 1, rad
        116   -2.081E-01, -2.857E-01, -9.355E-01         F               0         Blade root 3 Y orientation angle, node 1, rad
        117   -9.021E-02,  9.579E-01, -2.725E-01         F               0         Blade root 3 Z orientation angle, node 1, rad
        118    3.594E+01                                 F               0         Blade 1 X translation displacement, node 1, m
        119   -8.348E+00                                 F               0         Blade 1 Y translation displacement, node 1, m
        120   -7.893E-01                                 F               0         Blade 1 Z translation displacement, node 1, m
        121    3.613E+01                                 F               0         Blade 1 X translation displacement, node 2, m
        122   -8.656E+00                                 F               0         Blade 1 Y translation displacement, node 2, m
        123   -8.618E-01                                 F               0         Blade 1 Z translation displacement, node 2, m
        124    3.878E+01                                 F               0         Blade 1 X translation displacement, node 3, m
        125   -1.285E+01                                 F               0         Blade 1 Y translation displacement, node 3, m
        126   -1.847E+00                                 F               0         Blade 1 Z translation displacement, node 3, m
        127    3.934E+01                                 F               0         Blade 1 X translation displacement, node 4, m
        128   -1.374E+01                                 F               0         Blade 1 Y translation displacement, node 4, m
        129   -2.057E+00                                 F               0         Blade 1 Z translation displacement, node 4, m
        130    3.990E+01                                 F               0         Blade 1 X translation displacement, node 5, m
        131   -1.463E+01                                 F               0         Blade 1 Y translation displacement, node 5, m
        132   -2.267E+00                                 F               0         Blade 1 Z translation displacement, node 5, m
        133    4.047E+01                                 F               0         Blade 1 X translation displacement, node 6, m
        134   -1.553E+01                                 F               0         Blade 1 Y translation displacement, node 6, m
        135   -2.477E+00                                 F               0         Blade 1 Z translation displacement, node 6, m
        136    4.103E+01                                 F               0         Blade 1 X translation displacement, node 7, m
        137   -1.642E+01                                 F               0         Blade 1 Y translation displacement, node 7, m
        138   -2.687E+00                                 F               0         Blade 1 Z translation displacement, node 7, m
        139    4.159E+01                                 F               0         Blade 1 X translation displacement, node 8, m
        140   -1.731E+01                                 F               0         Blade 1 Y translation displacement, node 8, m
        141   -2.897E+00                                 F               0         Blade 1 Z translation displacement, node 8, m
        142    4.216E+01                                 F               0         Blade 1 X translation displacement, node 9, m
        143   -1.821E+01                                 F               0         Blade 1 Y translation displacement, node 9, m
        144   -3.107E+00                                 F               0         Blade 1 Z translation displacement, node 9, m
        145    4.272E+01                                 F               0         Blade 1 X translation displacement, node 10, m
        146   -1.910E+01                                 F               0         Blade 1 Y translation displacement, node 10, m
        147   -3.317E+00                                 F               0         Blade 1 Z translation displacement, node 10, m
        148    4.328E+01                                 F               0         Blade 1 X translation displacement, node 11, m
        149   -1.999E+01                                 F               0         Blade 1 Y translation displacement, node 11, m
        150   -3.527E+00                                 F               0         Blade 1 Z translation displacement, node 11, m
        151    4.385E+01                                 F               0         Blade 1 X translation displacement, node 12, m
        152   -2.089E+01                                 F               0         Blade 1 Y translation displacement, node 12, m
        153   -3.737E+00                                 F               0         Blade 1 Z translation displacement, node 12, m
        154    4.441E+01                                 F               0         Blade 1 X translation displacement, node 13, m
        155   -2.178E+01                                 F               0         Blade 1 Y translation displacement, node 13, m
        156   -3.947E+00                                 F               0         Blade 1 Z translation displacement, node 13, m
        157    4.498E+01                                 F               0         Blade 1 X translation displacement, node 14, m
        158   -2.267E+01                                 F               0         Blade 1 Y translation displacement, node 14, m
        159   -4.157E+00                                 F               0         Blade 1 Z translation displacement, node 14, m
        160    4.554E+01                                 F               0         Blade 1 X translation displacement, node 15, m
        161   -2.357E+01                                 F               0         Blade 1 Y translation displacement, node 15, m
        162   -4.367E+00                                 F               0         Blade 1 Z translation displacement, node 15, m
        163    4.610E+01                                 F               0         Blade 1 X translation displacement, node 16, m
        164   -2.446E+01                                 F               0         Blade 1 Y translation displacement, node 16, m
        165   -4.577E+00                                 F               0         Blade 1 Z translation displacement, node 16, m
        166    4.667E+01                                 F               0         Blade 1 X translation displacement, node 17, m
        167   -2.535E+01                                 F               0         Blade 1 Y translation displacement, node 17, m
        168   -4.787E+00                                 F               0         Blade 1 Z translation displacement, node 17, m
        169    4.723E+01                                 F               0         Blade 1 X translation displacement, node 18, m
        170   -2.625E+01                                 F               0         Blade 1 Y translation displacement, node 18, m
        171   -4.996E+00                                 F               0         Blade 1 Z translation displacement, node 18, m
        172    4.779E+01                                 F               0         Blade 1 X translation displacement, node 19, m
        173   -2.714E+01                                 F               0         Blade 1 Y translation displacement, node 19, m
        174   -5.206E+00                                 F               0         Blade 1 Z translation displacement, node 19, m
        175    4.836E+01                                 F               0         Blade 1 X translation displacement, node 20, m
        176   -2.803E+01                                 F               0         Blade 1 Y translation displacement, node 20, m
        177   -5.416E+00                                 F               0         Blade 1 Z translation displacement, node 20, m
        178    4.892E+01                                 F               0         Blade 1 X translation displacement, node 21, m
        179   -2.892E+01                                 F               0         Blade 1 Y translation displacement, node 21, m
        180   -5.626E+00                                 F               0         Blade 1 Z translation displacement, node 21, m
        181    4.948E+01                                 F               0         Blade 1 X translation displacement, node 22, m
        182   -2.982E+01                                 F               0         Blade 1 Y translation displacement, node 22, m
        183   -5.836E+00                                 F               0         Blade 1 Z translation displacement, node 22, m
        184    5.005E+01                                 F               0         Blade 1 X translation displacement, node 23, m
        185   -3.071E+01                                 F               0         Blade 1 Y translation displacement, node 23, m
        186   -6.046E+00                                 F               0         Blade 1 Z translation displacement, node 23, m
        187    5.061E+01                                 F               0         Blade 1 X translation displacement, node 24, m
        188   -3.160E+01                                 F               0         Blade 1 Y translation displacement, node 24, m
        189   -6.256E+00                                 F               0         Blade 1 Z translation displacement, node 24, m
        190    5.118E+01                                 F               0         Blade 1 X translation displacement, node 25, m
        191   -3.250E+01                                 F               0         Blade 1 Y translation displacement, node 25, m
        192   -6.466E+00                                 F               0         Blade 1 Z translation displacement, node 25, m
        193    5.174E+01                                 F               0         Blade 1 X translation displacement, node 26, m
        194   -3.339E+01                                 F               0         Blade 1 Y translation displacement, node 26, m
        195   -6.676E+00                                 F               0         Blade 1 Z translation displacement, node 26, m
        196    5.230E+01                                 F               0         Blade 1 X translation displacement, node 27, m
        197   -3.428E+01                                 F               0         Blade 1 Y translation displacement, node 27, m
        198   -6.886E+00                                 F               0         Blade 1 Z translation displacement, node 27, m
        199    5.278E+01                                 F               0         Blade 1 X translation displacement, node 28, m
        200   -3.504E+01                                 F               0         Blade 1 Y translation displacement, node 28, m
        201   -7.064E+00                                 F               0         Blade 1 Z translation displacement, node 28, m
        202    8.280E-01, -4.523E-01, -3.315E-01         F               0         Blade 1 X orientation angle, node 1, rad
        203    5.018E-01,  8.615E-01,  7.803E-02         F               0         Blade 1 Y orientation angle, node 1, rad
        204    2.502E-01, -2.309E-01,  9.402E-01         F               0         Blade 1 Z orientation angle, node 1, rad
        205    8.280E-01, -4.523E-01, -3.315E-01         F               0         Blade 1 X orientation angle, node 2, rad
        206    5.018E-01,  8.615E-01,  7.803E-02         F               0         Blade 1 Y orientation angle, node 2, rad
        207    2.502E-01, -2.309E-01,  9.402E-01         F               0         Blade 1 Z orientation angle, node 2, rad
        208    9.233E-01, -2.352E-01, -3.035E-01         F               0         Blade 1 X orientation angle, node 3, rad
        209    2.912E-01,  9.441E-01,  1.544E-01         F               0         Blade 1 Y orientation angle, node 3, rad
        210    2.502E-01, -2.309E-01,  9.402E-01         F               0         Blade 1 Z orientation angle, node 3, rad
        211    9.348E-01, -1.951E-01, -2.967E-01         F               0         Blade 1 X orientation angle, node 4, rad
        212    2.520E-01,  9.532E-01,  1.670E-01         F               0         Blade 1 Y orientation angle, node 4, rad
        213    2.502E-01, -2.309E-01,  9.402E-01         F               0         Blade 1 Z orientation angle, node 4, rad
        214    9.427E-01, -1.634E-01, -2.910E-01         F               0         Blade 1 X orientation angle, node 5, rad
        215    2.209E-01,  9.591E-01,  1.768E-01         F               0         Blade 1 Y orientation angle, node 5, rad
        216    2.502E-01, -2.309E-01,  9.402E-01         F               0         Blade 1 Z orientation angle, node 5, rad
        217    9.482E-01, -1.379E-01, -2.862E-01         F               0         Blade 1 X orientation angle, node 6, rad
        218    1.958E-01,  9.631E-01,  1.844E-01         F               0         Blade 1 Y orientation angle, node 6, rad
        219    2.502E-01, -2.309E-01,  9.402E-01         F               0         Blade 1 Z orientation angle, node 6, rad
        220    9.522E-01, -1.169E-01, -2.821E-01         F               0         Blade 1 X orientation angle, node 7, rad
        221    1.750E-01,  9.659E-01,  1.906E-01         F               0         Blade 1 Y orientation angle, node 7, rad
        222    2.502E-01, -2.309E-01,  9.402E-01         F               0         Blade 1 Z orientation angle, node 7, rad
        223    9.552E-01, -9.933E-02, -2.786E-01         F               0         Blade 1 X orientation angle, node 8, rad
        224    1.577E-01,  9.679E-01,  1.957E-01         F               0         Blade 1 Y orientation angle, node 8, rad
        225    2.502E-01, -2.309E-01,  9.402E-01         F               0         Blade 1 Z orientation angle, node 8, rad
        226    9.576E-01, -8.445E-02, -2.756E-01         F               0         Blade 1 X orientation angle, node 9, rad
        227    1.430E-01,  9.693E-01,  2.000E-01         F               0         Blade 1 Y orientation angle, node 9, rad