
Linearized model: Predictions were generated on 12-Feb-2024 at 18:31:58 using OpenFAST, compiled as a 64-bit application using single precision at commit v3.5.1
 linked with  NWTC Subroutine Library; ElastoDyn; InflowWind; AeroDyn; ServoDyn; HydroDyn; MAP++ (<1.20.10>, <Oct-20-2023>)

Description from the FAST input file: CCT-9 Campign 4 model. Input files to be run with OpenFAST 3.5.0. GitHub branch from Lu Wang (https://github.com/luwang00/openfast/tree/dev) compiled on March 7, 2023.

Simulation information:
   Simulation time:                  1001.0000 s
   Rotor Speed:                         1.0459 rad/s
   Azimuth:                             0.7132 rad
   Wind Speed:                         12.0000 m/s
   Number of continuous states:         0
   Number of discrete states:           0
   Number of constraint states:         0
   Number of inputs:                 1746
   Number of outputs:                   4
   Jacobians included in this file?    No

Order of inputs:
     Column   Operating Point                     Rotating Frame? Derivative Order Description
   ---------- ---------------                     --------------- ---------------- -----------
          1    1.518E+01                                 F               0         Tower X translation displacement, node 1, m
          2   -1.052E+00                                 F               0         Tower Y translation displacement, node 1, m
          3   -4.776E-01                                 F               0         Tower Z translation displacement, node 1, m
          4    1.705E+01                                 F               0         Tower X translation displacement, node 2, m
          5   -1.606E+00                                 F               0         Tower Y translation displacement, node 2, m
          6   -6.315E-01                                 F               0         Tower Z translation displacement, node 2, m
          7    1.891E+01                                 F               0         Tower X translation displacement, node 3, m
          8   -2.160E+00                                 F               0         Tower Y translation displacement, node 3, m
          9   -7.854E-01                                 F               0         Tower Z translation displacement, node 3, m
         10    2.077E+01                                 F               0         Tower X translation displacement, node 4, m
         11   -2.713E+00                                 F               0         Tower Y translation displacement, node 4, m
         12   -9.393E-01                                 F               0         Tower Z translation displacement, node 4, m
         13    2.264E+01                                 F               0         Tower X translation displacement, node 5, m
         14   -3.267E+00                                 F               0         Tower Y translation displacement, node 5, m
         15   -1.093E+00                                 F               0         Tower Z translation displacement, node 5, m
         16    2.450E+01                                 F               0         Tower X translation displacement, node 6, m
         17   -3.821E+00                                 F               0         Tower Y translation displacement, node 6, m
         18   -1.247E+00                                 F               0         Tower Z translation displacement, node 6, m
         19    2.636E+01                                 F               0         Tower X translation displacement, node 7, m
         20   -4.374E+00                                 F               0         Tower Y translation displacement, node 7, m
         21   -1.401E+00                                 F               0         Tower Z translation displacement, node 7, m
         22    2.823E+01                                 F               0         Tower X translation displacement, node 8, m
         23   -4.928E+00                                 F               0         Tower Y translation displacement, node 8, m
         24   -1.555E+00                                 F               0         Tower Z translation displacement, node 8, m
         25    3.009E+01                                 F               0         Tower X translation displacement, node 9, m
         26   -5.482E+00                                 F               0         Tower Y translation displacement, node 9, m
         27   -1.709E+00                                 F               0         Tower Z translation displacement, node 9, m
         28    3.195E+01                                 F               0         Tower X translation displacement, node 10, m
         29   -6.035E+00                                 F               0         Tower Y translation displacement, node 10, m
         30   -1.863E+00                                 F               0         Tower Z translation displacement, node 10, m
         31    3.382E+01                                 F               0         Tower X translation displacement, node 11, m
         32   -6.589E+00                                 F               0         Tower Y translation displacement, node 11, m
         33   -2.017E+00                                 F               0         Tower Z translation displacement, node 11, m
         34    9.885E-01,  1.462E-02, -1.503E-01         F               0         Tower X orientation angle, node 1, rad
         35   -7.698E-03,  9.989E-01,  4.650E-02         F               0         Tower Y orientation angle, node 1, rad
         36    1.508E-01, -4.481E-02,  9.875E-01         F               0         Tower Z orientation angle, node 1, rad
         37    9.885E-01,  1.462E-02, -1.503E-01         F               0         Tower X orientation angle, node 2, rad
         38   -7.698E-03,  9.989E-01,  4.650E-02         F               0         Tower Y orientation angle, node 2, rad
         39    1.508E-01, -4.481E-02,  9.875E-01         F               0         Tower Z orientation angle, node 2, rad
         40    9.885E-01,  1.462E-02, -1.503E-01         F               0         Tower X orientation angle, node 3, rad
         41   -7.698E-03,  9.989E-01,  4.650E-02         F               0         Tower Y orientation angle, node 3, rad
         42    1.508E-01, -4.481E-02,  9.875E-01         F               0         Tower Z orientation angle, node 3, rad
         43    9.885E-01,  1.462E-02, -1.503E-01         F               0         Tower X orientation angle, node 4, rad
         44   -7.698E-03,  9.989E-01,  4.650E-02         F               0         Tower Y orientation angle, node 4, rad
         45    1.508E-01, -4.481E-02,  9.875E-01         F               0         Tower Z orientation angle, node 4, rad
         46    9.885E-01,  1.462E-02, -1.503E-01         F               0         Tower X orientation angle, node 5, rad
         47   -7.698E-03,  9.989E-01,  4.650E-02         F               0         Tower Y orientation angle, node 5, rad
         48    1.508E-01, -4.481E-02,  9.875E-01         F               0         Tower Z orientation angle, node 5, rad
         49    9.885E-01,  1.462E-02, -1.503E-01         F               0         Tower X orientation angle, node 6, rad
         50   -7.698E-03,  9.989E-01,  4.650E-02         F               0         Tower Y orientation angle, node 6, rad
         51    1.508E-01, -4.481E-02,  9.875E-01         F               0         Tower Z orientation angle, node 6, rad
         52    9.885E-01,  1.462E-02, -1.503E-01         F               0         Tower X orientation angle, node 7, rad
         53   -7.698E-03,  9.989E-01,  4.650E-02         F               0         Tower Y orientation angle, node 7, rad
         54    1.508E-01, -4.481E-02,  9.875E-01         F               0         Tower Z orientation angle, node 7, rad
         55    9.885E-01,  1.462E-02, -1.503E-01         F               0         Tower X orientation angle, node 8, rad
         56   -7.698E-03,  9.989E-01,  4.650E-02         F               0         Tower Y orientation angle, node 8, rad
         57    1.508E-01, -4.481E-02,  9.875E-01         F               0         Tower Z orientation angle, node 8, rad
         58    9.885E-01,  1.462E-02, -1.503E-01         F               0         Tower X orientation angle, node 9, rad
         59   -7.698E-03,  9.989E-01,  4.650E-02         F               0         Tower Y orientation angle, node 9, rad
         60    1.508E-01, -4.481E-02,  9.875E-01         F               0         Tower Z orientation angle, node 9, rad
         61    9.885E-01,  1.462E-02, -1.503E-01         F               0         Tower X orientation angle, node 10, rad
         62   -7.698E-03,  9.989E-01,  4.650E-02         F               0         Tower Y orientation angle, node 10, rad
         63    1.508E-01, -4.481E-02,  9.875E-01         F               0         Tower Z orientation angle, node 10, rad
         64    9.885E-01,  1.462E-02, -1.503E-01         F               0         Tower X orientation angle, node 11, rad
         65   -7.698E-03,  9.989E-01,  4.650E-02         F               0         Tower Y orientation angle, node 11, rad
         66    1.508E-01, -4.481E-02,  9.875E-01         F               0         Tower Z orientation angle, node 11, rad
         67   -1.064E-03                                 F               0         Tower X translation velocity, node 1, m/s
         68   -6.324E-03                                 F               0         Tower Y translation velocity, node 1, m/s
         69   -2.118E-03                                 F               0         Tower Z translation velocity, node 1, m/s
         70   -1.568E-03                                 F               0         Tower X translation velocity, node 2, m/s
         71   -1.087E-02                                 F               0         Tower Y translation velocity, node 2, m/s
         72   -2.247E-03                                 F               0         Tower Z translation velocity, node 2, m/s
         73   -2.071E-03                                 F               0         Tower X translation velocity, node 3, m/s
         74   -1.541E-02                                 F               0         Tower Y translation velocity, node 3, m/s
         75   -2.376E-03                                 F               0         Tower Z translation velocity, node 3, m/s
         76   -2.575E-03                                 F               0         Tower X translation velocity, node 4, m/s
         77   -1.995E-02                                 F               0         Tower Y translation velocity, node 4, m/s
         78   -2.506E-03                                 F               0         Tower Z translation velocity, node 4, m/s
         79   -3.078E-03                                 F               0         Tower X translation velocity, node 5, m/s
         80   -2.450E-02                                 F               0         Tower Y translation velocity, node 5, m/s
         81   -2.635E-03                                 F               0         Tower Z translation velocity, node 5, m/s
         82   -3.582E-03                                 F               0         Tower X translation velocity, node 6, m/s
         83   -2.904E-02                                 F               0         Tower Y translation velocity, node 6, m/s
         84   -2.764E-03                                 F               0         Tower Z translation velocity, node 6, m/s
         85   -4.085E-03                                 F               0         Tower X translation velocity, node 7, m/s
         86   -3.358E-02                                 F               0         Tower Y translation velocity, node 7, m/s
         87   -2.893E-03                                 F               0         Tower Z translation velocity, node 7, m/s
         88   -4.589E-03                                 F               0         Tower X translation velocity, node 8, m/s
         89   -3.813E-02                                 F               0         Tower Y translation velocity, node 8, m/s
         90   -3.023E-03                                 F               0         Tower Z translation velocity, node 8, m/s
         91   -5.092E-03                                 F               0         Tower X translation velocity, node 9, m/s
         92   -4.267E-02                                 F               0         Tower Y translation velocity, node 9, m/s
         93   -3.152E-03                                 F               0         Tower Z translation velocity, node 9, m/s
         94   -5.596E-03                                 F               0         Tower X translation velocity, node 10, m/s
         95   -4.721E-02                                 F               0         Tower Y translation velocity, node 10, m/s
         96   -3.281E-03                                 F               0         Tower Z translation velocity, node 10, m/s
         97   -6.099E-03                                 F               0         Tower X translation velocity, node 11, m/s
         98   -5.176E-02                                 F               0         Tower Y translation velocity, node 11, m/s
         99   -3.410E-03                                 F               0         Tower Z translation velocity, node 11, m/s
        100    3.513E+01                                 F               0         Hub X translation displacement, node 1, m
        101   -7.099E+00                                 F               0         Hub Y translation displacement, node 1, m
        102   -4.909E-01                                 F               0         Hub Z translation displacement, node 1, m
        103    9.673E-01,  1.922E-02, -2.527E-01         F               0         Hub X orientation angle, node 1, rad
        104    1.599E-01,  7.273E-01,  6.674E-01         F               0         Hub Y orientation angle, node 1, rad
        105    1.966E-01, -6.861E-01,  7.005E-01         F               0         Hub Z orientation angle, node 1, rad
        106    1.012E+00                                 F               0         Hub X rotation velocity, node 1, rad/s
        107    2.006E-02                                 F               0         Hub Y rotation velocity, node 1, rad/s
        108   -2.644E-01                                 F               0         Hub Z rotation velocity, node 1, rad/s
        109    9.622E-01, -2.364E-03, -2.724E-01         F               0         Blade root 1 X orientation angle, node 1, rad
        110    1.885E-01,  7.275E-01,  6.596E-01         F               0         Blade root 1 Y orientation angle, node 1, rad
        111    1.966E-01, -6.861E-01,  7.005E-01         F               0         Blade root 1 Z orientation angle, node 1, rad
        112    9.642E-01,  4.763E-02, -2.607E-01         F               0         Blade root 2 X orientation angle, node 1, rad
        113    1.190E-01, -9.568E-01,  2.653E-01         F               0         Blade root 2 Y orientation angle, node 1, rad
        114   -2.368E-01, -2.868E-01, -9.283E-01         F               0         Blade root 2 Z orientation angle, node 1, rad
        115    9.743E-01,  1.237E-02, -2.247E-01         F               0         Blade root 3 X orientation angle, node 1, rad
        116   -2.214E-01,  2.310E-01, -9.474E-01         F               0         Blade root 3 Y orientation angle, node 1, rad
        117    4.018E-02,  9.729E-01,  2.278E-01         F               0         Blade root 3 Z orientation angle, node 1, rad
        118    3.564E+01                                 F               0         Blade 1 X translation displacement, node 1, m
        119   -1.090E+01                                 F               0         Blade 1 Y translation displacement, node 1, m
        120   -2.120E+00                                 F               0         Blade 1 Z translation displacement, node 1, m
        121    3.576E+01                                 F               0         Blade 1 X translation displacement, node 2, m
        122   -1.182E+01                                 F               0         Blade 1 Y translation displacement, node 2, m
        123   -2.512E+00                                 F               0         Blade 1 Z translation displacement, node 2, m
        124    3.743E+01                                 F               0         Blade 1 X translation displacement, node 3, m
        125   -2.427E+01                                 F               0         Blade 1 Y translation displacement, node 3, m
        126   -7.850E+00                                 F               0         Blade 1 Z translation displacement, node 3, m
        127    3.779E+01                                 F               0         Blade 1 X translation displacement, node 4, m
        128   -2.692E+01                                 F               0         Blade 1 Y translation displacement, node 4, m
        129   -8.987E+00                                 F               0         Blade 1 Z translation displacement, node 4, m
        130    3.814E+01                                 F               0         Blade 1 X translation displacement, node 5, m
        131   -2.958E+01                                 F               0         Blade 1 Y translation displacement, node 5, m
        132   -1.012E+01                                 F               0         Blade 1 Z translation displacement, node 5, m
        133    3.850E+01                                 F               0         Blade 1 X translation displacement, node 6, m
        134   -3.223E+01                                 F               0         Blade 1 Y translation displacement, node 6, m
        135   -1.126E+01                                 F               0         Blade 1 Z translation displacement, node 6, m
        136    3.886E+01                                 F               0         Blade 1 X translation displacement, node 7, m
        137   -3.488E+01                                 F               0         Blade 1 Y translation displacement, node 7, m
        138   -1.240E+01                                 F               0         Blade 1 Z translation displacement, node 7, m
        139    3.921E+01                                 F               0         Blade 1 X translation displacement, node 8, m
        140   -3.754E+01                                 F               0         Blade 1 Y translation displacement, node 8, m
        141   -1.354E+01                                 F               0         Blade 1 Z translation displacement, node 8, m
        142    3.957E+01                                 F               0         Blade 1 X translation displacement, node 9, m
        143   -4.019E+01                                 F               0         Blade 1 Y translation displacement, node 9, m
        144   -1.467E+01                                 F               0         Blade 1 Z translation displacement, node 9, m
        145    3.992E+01                                 F               0         Blade 1 X translation displacement, node 10, m
        146   -4.284E+01                                 F               0         Blade 1 Y translation displacement, node 10, m
        147   -1.581E+01                                 F               0         Blade 1 Z translation displacement, node 10, m
        148    4.028E+01                                 F               0         Blade 1 X translation displacement, node 11, m
        149   -4.550E+01                                 F               0         Blade 1 Y translation displacement, node 11, m
        150   -1.695E+01                                 F               0         Blade 1 Z translation displacement, node 11, m
        151    4.064E+01                                 F               0         Blade 1 X translation displacement, node 12, m
        152   -4.815E+01                                 F               0         Blade 1 Y translation displacement, node 12, m
        153   -1.809E+01                                 F               0         Blade 1 Z translation displacement, node 12, m
        154    4.099E+01                                 F               0         Blade 1 X translation displacement, node 13, m
        155   -5.080E+01                                 F               0         Blade 1 Y translation displacement, node 13, m
        156   -1.922E+01                                 F               0         Blade 1 Z translation displacement, node 13, m
        157    4.135E+01                                 F               0         Blade 1 X translation displacement, node 14, m
        158   -5.346E+01                                 F               0         Blade 1 Y translation displacement, node 14, m
        159   -2.036E+01                                 F               0         Blade 1 Z translation displacement, node 14, m
        160    4.171E+01                                 F               0         Blade 1 X translation displacement, node 15, m
        161   -5.611E+01                                 F               0         Blade 1 Y translation displacement, node 15, m
        162   -2.150E+01                                 F               0         Blade 1 Z translation displacement, node 15, m
        163    4.206E+01                                 F               0         Blade 1 X translation displacement, node 16, m
        164   -5.876E+01                                 F               0         Blade 1 Y translation displacement, node 16, m
        165   -2.264E+01                                 F               0         Blade 1 Z translation displacement, node 16, m
        166    4.242E+01                                 F               0         Blade 1 X translation displacement, node 17, m
        167   -6.142E+01                                 F               0         Blade 1 Y translation displacement, node 17, m
        168   -2.377E+01                                 F               0         Blade 1 Z translation displacement, node 17, m
        169    4.277E+01                                 F               0         Blade 1 X translation displacement, node 18, m
        170   -6.407E+01                                 F               0         Blade 1 Y translation displacement, node 18, m
        171   -2.491E+01                                 F               0         Blade 1 Z translation displacement, node 18, m
        172    4.313E+01                                 F               0         Blade 1 X translation displacement, node 19, m
        173   -6.672E+01                                 F               0         Blade 1 Y translation displacement, node 19, m
        174   -2.605E+01                                 F               0         Blade 1 Z translation displacement, node 19, m
        175    4.349E+01                                 F               0         Blade 1 X translation displacement, node 20, m
        176   -6.938E+01                                 F               0         Blade 1 Y translation displacement, node 20, m
        177   -2.718E+01                                 F               0         Blade 1 Z translation displacement, node 20, m
        178    4.384E+01                                 F               0         Blade 1 X translation displacement, node 21, m
        179   -7.203E+01                                 F               0         Blade 1 Y translation displacement, node 21, m
        180   -2.832E+01                                 F               0         Blade 1 Z translation displacement, node 21, m
        181    4.420E+01                                 F               0         Blade 1 X translation displacement, node 22, m
        182   -7.468E+01                                 F               0         Blade 1 Y translation displacement, node 22, m
        183   -2.946E+01                                 F               0         Blade 1 Z translation displacement, node 22, m
        184    4.456E+01                                 F               0         Blade 1 X translation displacement, node 23, m
        185   -7.734E+01                                 F               0         Blade 1 Y translation displacement, node 23, m
        186   -3.060E+01                                 F               0         Blade 1 Z translation displacement, node 23, m
        187    4.491E+01                                 F               0         Blade 1 X translation displacement, node 24, m
        188   -7.999E+01                                 F               0         Blade 1 Y translation displacement, node 24, m
        189   -3.173E+01                                 F               0         Blade 1 Z translation displacement, node 24, m
        190    4.527E+01                                 F               0         Blade 1 X translation displacement, node 25, m
        191   -8.264E+01                                 F               0         Blade 1 Y translation displacement, node 25, m
        192   -3.287E+01                                 F               0         Blade 1 Z translation displacement, node 25, m
        193    4.562E+01                                 F               0         Blade 1 X translation displacement, node 26, m
        194   -8.530E+01                                 F               0         Blade 1 Y translation displacement, node 26, m
        195   -3.401E+01                                 F               0         Blade 1 Z translation displacement, node 26, m
        196    4.598E+01                                 F               0         Blade 1 X translation displacement, node 27, m
        197   -8.795E+01                                 F               0         Blade 1 Y translation displacement, node 27, m
        198   -3.515E+01                                 F               0         Blade 1 Z translation displacement, node 27, m
        199    4.628E+01                                 F               0         Blade 1 X translation displacement, node 28, m
        200   -9.020E+01                                 F               0         Blade 1 Y translation displacement, node 28, m
        201   -3.611E+01                                 F               0         Blade 1 Z translation displacement, node 28, m
        202    7.703E-01, -3.339E-01, -5.432E-01         F               0         Blade 1 X orientation angle, node 1, rad
        203    6.066E-01,  6.464E-01,  4.628E-01         F               0         Blade 1 Y orientation angle, node 1, rad
        204    1.966E-01, -6.861E-01,  7.005E-01         F               0         Blade 1 Z orientation angle, node 1, rad
        205    7.703E-01, -3.339E-01, -5.432E-01         F               0         Blade 1 X orientation angle, node 2, rad
        206    6.066E-01,  6.464E-01,  4.628E-01         F               0         Blade 1 Y orientation angle, node 2, rad
        207    1.966E-01, -6.861E-01,  7.005E-01         F               0         Blade 1 Z orientation angle, node 2, rad
        208    8.921E-01, -1.712E-01, -4.181E-01         F               0         Blade 1 X orientation angle, node 3, rad
        209    4.067E-01,  7.071E-01,  5.784E-01         F               0         Blade 1 Y orientation angle, node 3, rad
        210    1.966E-01, -6.861E-01,  7.005E-01         F               0         Blade 1 Z orientation angle, node 3, rad
        211    9.085E-01, -1.411E-01, -3.933E-01         F               0         Blade 1 X orientation angle, node 4, rad
        212    3.687E-01,  7.137E-01,  5.955E-01         F               0         Blade 1 Y orientation angle, node 4, rad
        213    1.966E-01, -6.861E-01,  7.005E-01         F               0         Blade 1 Z orientation angle, node 4, rad
        214    9.202E-01, -1.174E-01, -3.733E-01         F               0         Blade 1 X orientation angle, node 5, rad
        215    3.383E-01,  7.180E-01,  6.083E-01         F               0         Blade 1 Y orientation angle, node 5, rad
        216    1.966E-01, -6.861E-01,  7.005E-01         F               0         Blade 1 Z orientation angle, node 5, rad
        217    9.289E-01, -9.831E-02, -3.570E-01         F               0         Blade 1 X orientation angle, node 6, rad
        218    3.138E-01,  7.209E-01,  6.179E-01         F               0         Blade 1 Y orientation angle, node 6, rad
        219    1.966E-01, -6.861E-01,  7.005E-01         F               0         Blade 1 Z orientation angle, node 6, rad
        220    9.355E-01, -8.257E-02, -3.435E-01         F               0         Blade 1 X orientation angle, node 7, rad
        221    2.935E-01,  7.228E-01,  6.256E-01         F               0         Blade 1 Y orientation angle, node 7, rad
        222    1.966E-01, -6.861E-01,  7.005E-01         F               0         Blade 1 Z orientation angle, node 7, rad
        223    9.407E-01, -6.943E-02, -3.321E-01         F               0         Blade 1 X orientation angle, node 8, rad
        224    2.765E-01,  7.242E-01,  6.317E-01         F               0         Blade 1 Y orientation angle, node 8, rad
        225    1.966E-01, -6.861E-01,  7.005E-01         F               0         Blade 1 Z orientation angle, node 8, rad
        226    9.448E-01, -5.830E-02, -3.223E-01         F               0         Blade 1 X orientation angle, node 9, rad
        227    2.620E-01,  7.252E-01,  6.367E-01         F               0         Blade 1 Y orientation angle, node 9, rad