
Linearized model: Predictions were generated on 30-Jan-2024 at 18:20:32 using OpenFAST, compiled as a 64-bit application using single precision at commit v3.5.1
 linked with  NWTC Subroutine Library; ElastoDyn; InflowWind; AeroDyn; ServoDyn; HydroDyn; MAP++ (<1.20.10>, <Oct-20-2023>)

Description from the FAST input file: CCT-9 Campign 4 model. Input files to be run with OpenFAST 3.5.0. GitHub branch from Lu Wang (https://github.com/luwang00/openfast/tree/dev) compiled on March 7, 2023.

Simulation information:
   Simulation time:                   507.6750 s
   Rotor Speed:                         0.8793 rad/s
   Azimuth:                             5.6267 rad
   Wind Speed:                         10.0000 m/s
   Number of continuous states:         0
   Number of discrete states:           0
   Number of constraint states:         0
   Number of inputs:                 1746
   Number of outputs:                   4
   Jacobians included in this file?    No

Order of inputs:
     Column   Operating Point                     Rotating Frame? Derivative Order Description
   ---------- ---------------                     --------------- ---------------- -----------
          1    1.096E+01                                 F               0         Tower X translation displacement, node 1, m
          2   -1.134E+00                                 F               0         Tower Y translation displacement, node 1, m
          3   -2.900E-01                                 F               0         Tower Z translation displacement, node 1, m
          4    1.238E+01                                 F               0         Tower X translation displacement, node 2, m
          5   -1.658E+00                                 F               0         Tower Y translation displacement, node 2, m
          6   -3.829E-01                                 F               0         Tower Z translation displacement, node 2, m
          7    1.380E+01                                 F               0         Tower X translation displacement, node 3, m
          8   -2.183E+00                                 F               0         Tower Y translation displacement, node 3, m
          9   -4.759E-01                                 F               0         Tower Z translation displacement, node 3, m
         10    1.522E+01                                 F               0         Tower X translation displacement, node 4, m
         11   -2.708E+00                                 F               0         Tower Y translation displacement, node 4, m
         12   -5.689E-01                                 F               0         Tower Z translation displacement, node 4, m
         13    1.664E+01                                 F               0         Tower X translation displacement, node 5, m
         14   -3.233E+00                                 F               0         Tower Y translation displacement, node 5, m
         15   -6.619E-01                                 F               0         Tower Z translation displacement, node 5, m
         16    1.806E+01                                 F               0         Tower X translation displacement, node 6, m
         17   -3.757E+00                                 F               0         Tower Y translation displacement, node 6, m
         18   -7.548E-01                                 F               0         Tower Z translation displacement, node 6, m
         19    1.948E+01                                 F               0         Tower X translation displacement, node 7, m
         20   -4.282E+00                                 F               0         Tower Y translation displacement, node 7, m
         21   -8.478E-01                                 F               0         Tower Z translation displacement, node 7, m
         22    2.090E+01                                 F               0         Tower X translation displacement, node 8, m
         23   -4.807E+00                                 F               0         Tower Y translation displacement, node 8, m
         24   -9.408E-01                                 F               0         Tower Z translation displacement, node 8, m
         25    2.232E+01                                 F               0         Tower X translation displacement, node 9, m
         26   -5.331E+00                                 F               0         Tower Y translation displacement, node 9, m
         27   -1.034E+00                                 F               0         Tower Z translation displacement, node 9, m
         28    2.373E+01                                 F               0         Tower X translation displacement, node 10, m
         29   -5.856E+00                                 F               0         Tower Y translation displacement, node 10, m
         30   -1.127E+00                                 F               0         Tower Z translation displacement, node 10, m
         31    2.515E+01                                 F               0         Tower X translation displacement, node 11, m
         32   -6.381E+00                                 F               0         Tower Y translation displacement, node 11, m
         33   -1.220E+00                                 F               0         Tower Z translation displacement, node 11, m
         34    9.934E-01,  9.669E-03, -1.145E-01         F               0         Tower X orientation angle, node 1, rad
         35   -4.732E-03,  9.991E-01,  4.330E-02         F               0         Tower Y orientation angle, node 1, rad
         36    1.149E-01, -4.247E-02,  9.925E-01         F               0         Tower Z orientation angle, node 1, rad
         37    9.934E-01,  9.669E-03, -1.145E-01         F               0         Tower X orientation angle, node 2, rad
         38   -4.732E-03,  9.991E-01,  4.330E-02         F               0         Tower Y orientation angle, node 2, rad
         39    1.149E-01, -4.247E-02,  9.925E-01         F               0         Tower Z orientation angle, node 2, rad
         40    9.934E-01,  9.669E-03, -1.145E-01         F               0         Tower X orientation angle, node 3, rad
         41   -4.732E-03,  9.991E-01,  4.330E-02         F               0         Tower Y orientation angle, node 3, rad
         42    1.149E-01, -4.247E-02,  9.925E-01         F               0         Tower Z orientation angle, node 3, rad
         43    9.934E-01,  9.669E-03, -1.145E-01         F               0         Tower X orientation angle, node 4, rad
         44   -4.732E-03,  9.991E-01,  4.330E-02         F               0         Tower Y orientation angle, node 4, rad
         45    1.149E-01, -4.247E-02,  9.925E-01         F               0         Tower Z orientation angle, node 4, rad
         46    9.934E-01,  9.669E-03, -1.145E-01         F               0         Tower X orientation angle, node 5, rad
         47   -4.732E-03,  9.991E-01,  4.330E-02         F               0         Tower Y orientation angle, node 5, rad
         48    1.149E-01, -4.247E-02,  9.925E-01         F               0         Tower Z orientation angle, node 5, rad
         49    9.934E-01,  9.669E-03, -1.145E-01         F               0         Tower X orientation angle, node 6, rad
         50   -4.732E-03,  9.991E-01,  4.330E-02         F               0         Tower Y orientation angle, node 6, rad
         51    1.149E-01, -4.247E-02,  9.925E-01         F               0         Tower Z orientation angle, node 6, rad
         52    9.934E-01,  9.669E-03, -1.145E-01         F               0         Tower X orientation angle, node 7, rad
         53   -4.732E-03,  9.991E-01,  4.330E-02         F               0         Tower Y orientation angle, node 7, rad
         54    1.149E-01, -4.247E-02,  9.925E-01         F               0         Tower Z orientation angle, node 7, rad
         55    9.934E-01,  9.669E-03, -1.145E-01         F               0         Tower X orientation angle, node 8, rad
         56   -4.732E-03,  9.991E-01,  4.330E-02         F               0         Tower Y orientation angle, node 8, rad
         57    1.149E-01, -4.247E-02,  9.925E-01         F               0         Tower Z orientation angle, node 8, rad
         58    9.934E-01,  9.669E-03, -1.145E-01         F               0         Tower X orientation angle, node 9, rad
         59   -4.732E-03,  9.991E-01,  4.330E-02         F               0         Tower Y orientation angle, node 9, rad
         60    1.149E-01, -4.247E-02,  9.925E-01         F               0         Tower Z orientation angle, node 9, rad
         61    9.934E-01,  9.669E-03, -1.145E-01         F               0         Tower X orientation angle, node 10, rad
         62   -4.732E-03,  9.991E-01,  4.330E-02         F               0         Tower Y orientation angle, node 10, rad
         63    1.149E-01, -4.247E-02,  9.925E-01         F               0         Tower Z orientation angle, node 10, rad
         64    9.934E-01,  9.669E-03, -1.145E-01         F               0         Tower X orientation angle, node 11, rad
         65   -4.732E-03,  9.991E-01,  4.330E-02         F               0         Tower Y orientation angle, node 11, rad
         66    1.149E-01, -4.247E-02,  9.925E-01         F               0         Tower Z orientation angle, node 11, rad
         67   -4.728E-03                                 F               0         Tower X translation velocity, node 1, m/s
         68   -6.850E-03                                 F               0         Tower Y translation velocity, node 1, m/s
         69    3.446E-03                                 F               0         Tower Z translation velocity, node 1, m/s
         70   -4.657E-03                                 F               0         Tower X translation velocity, node 2, m/s
         71   -1.130E-02                                 F               0         Tower Y translation velocity, node 2, m/s
         72    3.247E-03                                 F               0         Tower Z translation velocity, node 2, m/s
         73   -4.586E-03                                 F               0         Tower X translation velocity, node 3, m/s
         74   -1.576E-02                                 F               0         Tower Y translation velocity, node 3, m/s
         75    3.048E-03                                 F               0         Tower Z translation velocity, node 3, m/s
         76   -4.516E-03                                 F               0         Tower X translation velocity, node 4, m/s
         77   -2.021E-02                                 F               0         Tower Y translation velocity, node 4, m/s
         78    2.849E-03                                 F               0         Tower Z translation velocity, node 4, m/s
         79   -4.445E-03                                 F               0         Tower X translation velocity, node 5, m/s
         80   -2.466E-02                                 F               0         Tower Y translation velocity, node 5, m/s
         81    2.651E-03                                 F               0         Tower Z translation velocity, node 5, m/s
         82   -4.374E-03                                 F               0         Tower X translation velocity, node 6, m/s
         83   -2.912E-02                                 F               0         Tower Y translation velocity, node 6, m/s
         84    2.452E-03                                 F               0         Tower Z translation velocity, node 6, m/s
         85   -4.303E-03                                 F               0         Tower X translation velocity, node 7, m/s
         86   -3.357E-02                                 F               0         Tower Y translation velocity, node 7, m/s
         87    2.253E-03                                 F               0         Tower Z translation velocity, node 7, m/s
         88   -4.232E-03                                 F               0         Tower X translation velocity, node 8, m/s
         89   -3.802E-02                                 F               0         Tower Y translation velocity, node 8, m/s
         90    2.054E-03                                 F               0         Tower Z translation velocity, node 8, m/s
         91   -4.161E-03                                 F               0         Tower X translation velocity, node 9, m/s
         92   -4.248E-02                                 F               0         Tower Y translation velocity, node 9, m/s
         93    1.855E-03                                 F               0         Tower Z translation velocity, node 9, m/s
         94   -4.090E-03                                 F               0         Tower X translation velocity, node 10, m/s
         95   -4.693E-02                                 F               0         Tower Y translation velocity, node 10, m/s
         96    1.657E-03                                 F               0         Tower Z translation velocity, node 10, m/s
         97   -4.019E-03                                 F               0         Tower X translation velocity, node 11, m/s
         98   -5.138E-02                                 F               0         Tower Y translation velocity, node 11, m/s
         99    1.458E-03                                 F               0         Tower Z translation velocity, node 11, m/s
        100    2.613E+01                                 F               0         Hub X translation displacement, node 1, m
        101   -6.819E+00                                 F               0         Hub Y translation displacement, node 1, m
        102   -4.170E-02                                 F               0         Hub Z translation displacement, node 1, m
        103    9.759E-01,  1.405E-02, -2.177E-01         F               0         Hub X orientation angle, node 1, rad
        104   -1.368E-01,  8.165E-01, -5.608E-01         F               0         Hub Y orientation angle, node 1, rad
        105    1.698E-01,  5.771E-01,  7.988E-01         F               0         Hub Z orientation angle, node 1, rad
        106    8.585E-01                                 F               0         Hub X rotation velocity, node 1, rad/s
        107    1.237E-02                                 F               0         Hub Y rotation velocity, node 1, rad/s
        108   -1.915E-01                                 F               0         Hub Z rotation velocity, node 1, rad/s
        109    9.796E-01, -1.017E-02, -2.009E-01         F               0         Blade root 1 X orientation angle, node 1, rad
        110   -1.078E-01,  8.166E-01, -5.671E-01         F               0         Blade root 1 Y orientation angle, node 1, rad
        111    1.698E-01,  5.771E-01,  7.988E-01         F               0         Blade root 1 Z orientation angle, node 1, rad
        112    9.691E-01,  1.133E-02, -2.464E-01         F               0         Blade root 2 X orientation angle, node 1, rad
        113    2.444E-01,  9.192E-02,  9.653E-01         F               0         Blade root 2 Y orientation angle, node 1, rad
        114    3.359E-02, -9.957E-01,  8.631E-02         F               0         Blade root 2 Z orientation angle, node 1, rad
        115    9.778E-01,  4.099E-02, -2.054E-01         F               0         Blade root 3 X orientation angle, node 1, rad
        116   -4.968E-02, -9.073E-01, -4.176E-01         F               0         Blade root 3 Y orientation angle, node 1, rad
        117   -2.034E-01,  4.186E-01, -8.851E-01         F               0         Blade root 3 Z orientation angle, node 1, rad
        118    2.649E+01                                 F               0         Blade 1 X translation displacement, node 1, m
        119   -3.621E+00                                 F               0         Blade 1 Y translation displacement, node 1, m
        120   -1.126E+00                                 F               0         Blade 1 Z translation displacement, node 1, m
        121    2.658E+01                                 F               0         Blade 1 X translation displacement, node 2, m
        122   -2.851E+00                                 F               0         Blade 1 Y translation displacement, node 2, m
        123   -1.387E+00                                 F               0         Blade 1 Z translation displacement, node 2, m
        124    2.776E+01                                 F               0         Blade 1 X translation displacement, node 3, m
        125    7.625E+00                                 F               0         Blade 1 Y translation displacement, node 3, m
        126   -4.940E+00                                 F               0         Blade 1 Z translation displacement, node 3, m
        127    2.801E+01                                 F               0         Blade 1 X translation displacement, node 4, m
        128    9.857E+00                                 F               0         Blade 1 Y translation displacement, node 4, m
        129   -5.697E+00                                 F               0         Blade 1 Z translation displacement, node 4, m
        130    2.827E+01                                 F               0         Blade 1 X translation displacement, node 5, m
        131    1.209E+01                                 F               0         Blade 1 Y translation displacement, node 5, m
        132   -6.454E+00                                 F               0         Blade 1 Z translation displacement, node 5, m
        133    2.852E+01                                 F               0         Blade 1 X translation displacement, node 6, m
        134    1.432E+01                                 F               0         Blade 1 Y translation displacement, node 6, m
        135   -7.211E+00                                 F               0         Blade 1 Z translation displacement, node 6, m
        136    2.877E+01                                 F               0         Blade 1 X translation displacement, node 7, m
        137    1.655E+01                                 F               0         Blade 1 Y translation displacement, node 7, m
        138   -7.968E+00                                 F               0         Blade 1 Z translation displacement, node 7, m
        139    2.902E+01                                 F               0         Blade 1 X translation displacement, node 8, m
        140    1.879E+01                                 F               0         Blade 1 Y translation displacement, node 8, m
        141   -8.725E+00                                 F               0         Blade 1 Z translation displacement, node 8, m
        142    2.928E+01                                 F               0         Blade 1 X translation displacement, node 9, m
        143    2.102E+01                                 F               0         Blade 1 Y translation displacement, node 9, m
        144   -9.482E+00                                 F               0         Blade 1 Z translation displacement, node 9, m
        145    2.953E+01                                 F               0         Blade 1 X translation displacement, node 10, m
        146    2.325E+01                                 F               0         Blade 1 Y translation displacement, node 10, m
        147   -1.024E+01                                 F               0         Blade 1 Z translation displacement, node 10, m
        148    2.978E+01                                 F               0         Blade 1 X translation displacement, node 11, m
        149    2.548E+01                                 F               0         Blade 1 Y translation displacement, node 11, m
        150   -1.100E+01                                 F               0         Blade 1 Z translation displacement, node 11, m
        151    3.003E+01                                 F               0         Blade 1 X translation displacement, node 12, m
        152    2.771E+01                                 F               0         Blade 1 Y translation displacement, node 12, m
        153   -1.175E+01                                 F               0         Blade 1 Z translation displacement, node 12, m
        154    3.029E+01                                 F               0         Blade 1 X translation displacement, node 13, m
        155    2.995E+01                                 F               0         Blade 1 Y translation displacement, node 13, m
        156   -1.251E+01                                 F               0         Blade 1 Z translation displacement, node 13, m
        157    3.054E+01                                 F               0         Blade 1 X translation displacement, node 14, m
        158    3.218E+01                                 F               0         Blade 1 Y translation displacement, node 14, m
        159   -1.327E+01                                 F               0         Blade 1 Z translation displacement, node 14, m
        160    3.079E+01                                 F               0         Blade 1 X translation displacement, node 15, m
        161    3.441E+01                                 F               0         Blade 1 Y translation displacement, node 15, m
        162   -1.402E+01                                 F               0         Blade 1 Z translation displacement, node 15, m
        163    3.105E+01                                 F               0         Blade 1 X translation displacement, node 16, m
        164    3.664E+01                                 F               0         Blade 1 Y translation displacement, node 16, m
        165   -1.478E+01                                 F               0         Blade 1 Z translation displacement, node 16, m
        166    3.130E+01                                 F               0         Blade 1 X translation displacement, node 17, m
        167    3.888E+01                                 F               0         Blade 1 Y translation displacement, node 17, m
        168   -1.554E+01                                 F               0         Blade 1 Z translation displacement, node 17, m
        169    3.155E+01                                 F               0         Blade 1 X translation displacement, node 18, m
        170    4.111E+01                                 F               0         Blade 1 Y translation displacement, node 18, m
        171   -1.630E+01                                 F               0         Blade 1 Z translation displacement, node 18, m
        172    3.180E+01                                 F               0         Blade 1 X translation displacement, node 19, m
        173    4.334E+01                                 F               0         Blade 1 Y translation displacement, node 19, m
        174   -1.705E+01                                 F               0         Blade 1 Z translation displacement, node 19, m
        175    3.206E+01                                 F               0         Blade 1 X translation displacement, node 20, m
        176    4.557E+01                                 F               0         Blade 1 Y translation displacement, node 20, m
        177   -1.781E+01                                 F               0         Blade 1 Z translation displacement, node 20, m
        178    3.231E+01                                 F               0         Blade 1 X translation displacement, node 21, m
        179    4.780E+01                                 F               0         Blade 1 Y translation displacement, node 21, m
        180   -1.857E+01                                 F               0         Blade 1 Z translation displacement, node 21, m
        181    3.256E+01                                 F               0         Blade 1 X translation displacement, node 22, m
        182    5.004E+01                                 F               0         Blade 1 Y translation displacement, node 22, m
        183   -1.932E+01                                 F               0         Blade 1 Z translation displacement, node 22, m
        184    3.281E+01                                 F               0         Blade 1 X translation displacement, node 23, m
        185    5.227E+01                                 F               0         Blade 1 Y translation displacement, node 23, m
        186   -2.008E+01                                 F               0         Blade 1 Z translation displacement, node 23, m
        187    3.307E+01                                 F               0         Blade 1 X translation displacement, node 24, m
        188    5.450E+01                                 F               0         Blade 1 Y translation displacement, node 24, m
        189   -2.084E+01                                 F               0         Blade 1 Z translation displacement, node 24, m
        190    3.332E+01                                 F               0         Blade 1 X translation displacement, node 25, m
        191    5.673E+01                                 F               0         Blade 1 Y translation displacement, node 25, m
        192   -2.159E+01                                 F               0         Blade 1 Z translation displacement, node 25, m
        193    3.357E+01                                 F               0         Blade 1 X translation displacement, node 26, m
        194    5.897E+01                                 F               0         Blade 1 Y translation displacement, node 26, m
        195   -2.235E+01                                 F               0         Blade 1 Z translation displacement, node 26, m
        196    3.382E+01                                 F               0         Blade 1 X translation displacement, node 27, m
        197    6.120E+01                                 F               0         Blade 1 Y translation displacement, node 27, m
        198   -2.311E+01                                 F               0         Blade 1 Z translation displacement, node 27, m
        199    3.404E+01                                 F               0         Blade 1 X translation displacement, node 28, m
        200    6.309E+01                                 F               0         Blade 1 Y translation displacement, node 28, m
        201   -2.375E+01                                 F               0         Blade 1 Z translation displacement, node 28, m
        202    9.209E-01, -3.814E-01,  7.977E-02         F               0         Blade 1 X orientation angle, node 1, rad
        203    3.507E-01,  7.221E-01, -5.963E-01         F               0         Blade 1 Y orientation angle, node 1, rad
        204    1.698E-01,  5.771E-01,  7.988E-01         F               0         Blade 1 Z orientation angle, node 1, rad
        205    9.209E-01, -3.814E-01,  7.977E-02         F               0         Blade 1 X orientation angle, node 2, rad
        206    3.507E-01,  7.221E-01, -5.963E-01         F               0         Blade 1 Y orientation angle, node 2, rad
        207    1.698E-01,  5.771E-01,  7.988E-01         F               0         Blade 1 Z orientation angle, node 2, rad
        208    9.778E-01, -1.994E-01, -6.383E-02         F               0         Blade 1 X orientation angle, node 3, rad
        209    1.225E-01,  7.919E-01, -5.982E-01         F               0         Blade 1 Y orientation angle, node 3, rad
        210    1.698E-01,  5.771E-01,  7.988E-01         F               0         Blade 1 Z orientation angle, node 3, rad
        211    9.821E-01, -1.658E-01, -8.903E-02         F               0         Blade 1 X orientation angle, node 4, rad
        212    8.106E-02,  7.996E-01, -5.950E-01         F               0         Blade 1 Y orientation angle, node 4, rad
        213    1.698E-01,  5.771E-01,  7.988E-01         F               0         Blade 1 Z orientation angle, node 4, rad
        214    9.843E-01, -1.392E-01, -1.087E-01         F               0         Blade 1 X orientation angle, node 5, rad
        215    4.845E-02,  8.047E-01, -5.917E-01         F               0         Blade 1 Y orientation angle, node 5, rad
        216    1.698E-01,  5.771E-01,  7.988E-01         F               0         Blade 1 Z orientation angle, node 5, rad
        217    9.852E-01, -1.178E-01, -1.244E-01         F               0         Blade 1 X orientation angle, node 6, rad
        218    2.233E-02,  8.081E-01, -5.886E-01         F               0         Blade 1 Y orientation angle, node 6, rad
        219    1.698E-01,  5.771E-01,  7.988E-01         F               0         Blade 1 Z orientation angle, node 6, rad
        220    9.855E-01, -1.001E-01, -1.372E-01         F               0         Blade 1 X orientation angle, node 7, rad
        221    8.285E-04,  8.105E-01, -5.858E-01         F               0         Blade 1 Y orientation angle, node 7, rad
        222    1.698E-01,  5.771E-01,  7.988E-01         F               0         Blade 1 Z orientation angle, node 7, rad
        223    9.853E-01, -8.542E-02, -1.478E-01         F               0         Blade 1 X orientation angle, node 8, rad
        224   -1.706E-02,  8.122E-01, -5.832E-01         F               0         Blade 1 Y orientation angle, node 8, rad
        225    1.698E-01,  5.771E-01,  7.988E-01         F               0         Blade 1 Z orientation angle, node 8, rad
        226    9.849E-01, -7.293E-02, -1.567E-01         F               0         Blade 1 X orientation angle, node 9, rad
        227   -3.219E-02,  8.134E-01, -5.808E-01         F               0         Blade 1 Y orientation angle, node 9, rad