
Linearized model: Predictions were generated on 12-Feb-2024 at 18:31:58 using OpenFAST, compiled as a 64-bit application using single precision at commit v3.5.1
 linked with  NWTC Subroutine Library; ElastoDyn; InflowWind; AeroDyn; ServoDyn; HydroDyn; MAP++ (<1.20.10>, <Oct-20-2023>)

Description from the FAST input file: CCT-9 Campign 4 model. Input files to be run with OpenFAST 3.5.0. GitHub branch from Lu Wang (https://github.com/luwang00/openfast/tree/dev) compiled on March 7, 2023.

Simulation information:
   Simulation time:                  1007.9500 s
   Rotor Speed:                         1.0472 rad/s
   Azimuth:                             1.7048 rad
   Wind Speed:                         12.0000 m/s
   Number of continuous states:         0
   Number of discrete states:           0
   Number of constraint states:         0
   Number of inputs:                  303
   Number of outputs:                   1
   Jacobians included in this file?    No

Order of inputs:
     Column   Operating Point                     Rotating Frame? Derivative Order Description
   ---------- ---------------                     --------------- ---------------- -----------
          1   -1.080E+01                                 F               0         X-component position of node 1 (hub), m
          2    0.000E+00                                 F               0         Y-component position of node 1 (hub), m
          3    1.497E+02                                 F               0         Z-component position of node 1 (hub), m
          4    2.416E+01                                 F               0         X-component position of node 2 (blade 1, node 1), m
          5   -1.237E+01                                 F               0         Y-component position of node 2 (blade 1, node 1), m
          6    1.483E+02                                 F               0         Z-component position of node 2 (blade 1, node 1), m
          7    2.412E+01                                 F               0         X-component position of node 3 (blade 1, node 2), m
          8   -1.369E+01                                 F               0         Y-component position of node 3 (blade 1, node 2), m
          9    1.481E+02                                 F               0         Z-component position of node 3 (blade 1, node 2), m
         10    2.367E+01                                 F               0         X-component position of node 4 (blade 1, node 3), m
         11   -3.156E+01                                 F               0         Y-component position of node 4 (blade 1, node 3), m
         12    1.449E+02                                 F               0         Z-component position of node 4 (blade 1, node 3), m
         13    2.357E+01                                 F               0         X-component position of node 5 (blade 1, node 4), m
         14   -3.536E+01                                 F               0         Y-component position of node 5 (blade 1, node 4), m
         15    1.442E+02                                 F               0         Z-component position of node 5 (blade 1, node 4), m
         16    2.347E+01                                 F               0         X-component position of node 6 (blade 1, node 5), m
         17   -3.917E+01                                 F               0         Y-component position of node 6 (blade 1, node 5), m
         18    1.436E+02                                 F               0         Z-component position of node 6 (blade 1, node 5), m
         19    2.338E+01                                 F               0         X-component position of node 7 (blade 1, node 6), m
         20   -4.298E+01                                 F               0         Y-component position of node 7 (blade 1, node 6), m
         21    1.429E+02                                 F               0         Z-component position of node 7 (blade 1, node 6), m
         22    2.328E+01                                 F               0         X-component position of node 8 (blade 1, node 7), m
         23   -4.679E+01                                 F               0         Y-component position of node 8 (blade 1, node 7), m
         24    1.422E+02                                 F               0         Z-component position of node 8 (blade 1, node 7), m
         25    2.318E+01                                 F               0         X-component position of node 9 (blade 1, node 8), m
         26   -5.059E+01                                 F               0         Y-component position of node 9 (blade 1, node 8), m
         27    1.416E+02                                 F               0         Z-component position of node 9 (blade 1, node 8), m
         28    2.308E+01                                 F               0         X-component position of node 10 (blade 1, node 9), m
         29   -5.440E+01                                 F               0         Y-component position of node 10 (blade 1, node 9), m
         30    1.409E+02                                 F               0         Z-component position of node 10 (blade 1, node 9), m
         31    2.299E+01                                 F               0         X-component position of node 11 (blade 1, node 10), m
         32   -5.821E+01                                 F               0         Y-component position of node 11 (blade 1, node 10), m
         33    1.402E+02                                 F               0         Z-component position of node 11 (blade 1, node 10), m
         34    2.289E+01                                 F               0         X-component position of node 12 (blade 1, node 11), m
         35   -6.202E+01                                 F               0         Y-component position of node 12 (blade 1, node 11), m
         36    1.395E+02                                 F               0         Z-component position of node 12 (blade 1, node 11), m
         37    2.279E+01                                 F               0         X-component position of node 13 (blade 1, node 12), m
         38   -6.582E+01                                 F               0         Y-component position of node 13 (blade 1, node 12), m
         39    1.389E+02                                 F               0         Z-component position of node 13 (blade 1, node 12), m
         40    2.269E+01                                 F               0         X-component position of node 14 (blade 1, node 13), m
         41   -6.963E+01                                 F               0         Y-component position of node 14 (blade 1, node 13), m
         42    1.382E+02                                 F               0         Z-component position of node 14 (blade 1, node 13), m
         43    2.260E+01                                 F               0         X-component position of node 15 (blade 1, node 14), m
         44   -7.344E+01                                 F               0         Y-component position of node 15 (blade 1, node 14), m
         45    1.375E+02                                 F               0         Z-component position of node 15 (blade 1, node 14), m
         46    2.250E+01                                 F               0         X-component position of node 16 (blade 1, node 15), m
         47   -7.725E+01                                 F               0         Y-component position of node 16 (blade 1, node 15), m
         48    1.368E+02                                 F               0         Z-component position of node 16 (blade 1, node 15), m
         49    2.240E+01                                 F               0         X-component position of node 17 (blade 1, node 16), m
         50   -8.105E+01                                 F               0         Y-component position of node 17 (blade 1, node 16), m
         51    1.362E+02                                 F               0         Z-component position of node 17 (blade 1, node 16), m
         52    2.231E+01                                 F               0         X-component position of node 18 (blade 1, node 17), m
         53   -8.486E+01                                 F               0         Y-component position of node 18 (blade 1, node 17), m
         54    1.355E+02                                 F               0         Z-component position of node 18 (blade 1, node 17), m
         55    2.221E+01                                 F               0         X-component position of node 19 (blade 1, node 18), m
         56   -8.867E+01                                 F               0         Y-component position of node 19 (blade 1, node 18), m
         57    1.348E+02                                 F               0         Z-component position of node 19 (blade 1, node 18), m
         58    2.211E+01                                 F               0         X-component position of node 20 (blade 1, node 19), m
         59   -9.248E+01                                 F               0         Y-component position of node 20 (blade 1, node 19), m
         60    1.341E+02                                 F               0         Z-component position of node 20 (blade 1, node 19), m
         61    2.201E+01                                 F               0         X-component position of node 21 (blade 1, node 20), m
         62   -9.628E+01                                 F               0         Y-component position of node 21 (blade 1, node 20), m
         63    1.335E+02                                 F               0         Z-component position of node 21 (blade 1, node 20), m
         64    2.192E+01                                 F               0         X-component position of node 22 (blade 1, node 21), m
         65   -1.001E+02                                 F               0         Y-component position of node 22 (blade 1, node 21), m
         66    1.328E+02                                 F               0         Z-component position of node 22 (blade 1, node 21), m
         67    2.182E+01                                 F               0         X-component position of node 23 (blade 1, node 22), m
         68   -1.039E+02                                 F               0         Y-component position of node 23 (blade 1, node 22), m
         69    1.321E+02                                 F               0         Z-component position of node 23 (blade 1, node 22), m
         70    2.172E+01                                 F               0         X-component position of node 24 (blade 1, node 23), m
         71   -1.077E+02                                 F               0         Y-component position of node 24 (blade 1, node 23), m
         72    1.314E+02                                 F               0         Z-component position of node 24 (blade 1, node 23), m
         73    2.163E+01                                 F               0         X-component position of node 25 (blade 1, node 24), m
         74   -1.115E+02                                 F               0         Y-component position of node 25 (blade 1, node 24), m
         75    1.308E+02                                 F               0         Z-component position of node 25 (blade 1, node 24), m
         76    2.153E+01                                 F               0         X-component position of node 26 (blade 1, node 25), m
         77   -1.153E+02                                 F               0         Y-component position of node 26 (blade 1, node 25), m
         78    1.301E+02                                 F               0         Z-component position of node 26 (blade 1, node 25), m
         79    2.143E+01                                 F               0         X-component position of node 27 (blade 1, node 26), m
         80   -1.191E+02                                 F               0         Y-component position of node 27 (blade 1, node 26), m
         81    1.294E+02                                 F               0         Z-component position of node 27 (blade 1, node 26), m
         82    2.133E+01                                 F               0         X-component position of node 28 (blade 1, node 27), m
         83   -1.229E+02                                 F               0         Y-component position of node 28 (blade 1, node 27), m
         84    1.288E+02                                 F               0         Z-component position of node 28 (blade 1, node 27), m
         85    2.125E+01                                 F               0         X-component position of node 29 (blade 1, node 28), m
         86   -1.262E+02                                 F               0         Y-component position of node 29 (blade 1, node 28), m
         87    1.282E+02                                 F               0         Z-component position of node 29 (blade 1, node 28), m
         88    2.316E+01                                 F               0         X-component position of node 30 (blade 2, node 1), m
         89   -3.355E+00                                 F               0         Y-component position of node 30 (blade 2, node 1), m
         90    1.452E+02                                 F               0         Z-component position of node 30 (blade 2, node 1), m
         91    2.288E+01                                 F               0         X-component position of node 31 (blade 2, node 2), m
         92   -2.496E+00                                 F               0         Y-component position of node 31 (blade 2, node 2), m
         93    1.442E+02                                 F               0         Z-component position of node 31 (blade 2, node 2), m
         94    1.915E+01                                 F               0         X-component position of node 32 (blade 2, node 3), m
         95    9.187E+00                                 F               0         Y-component position of node 32 (blade 2, node 3), m
         96    1.308E+02                                 F               0         Z-component position of node 32 (blade 2, node 3), m
         97    1.835E+01                                 F               0         X-component position of node 33 (blade 2, node 4), m
         98    1.168E+01                                 F               0         Y-component position of node 33 (blade 2, node 4), m
         99    1.280E+02                                 F               0         Z-component position of node 33 (blade 2, node 4), m
        100    1.756E+01                                 F               0         X-component position of node 34 (blade 2, node 5), m
        101    1.417E+01                                 F               0         Y-component position of node 34 (blade 2, node 5), m
        102    1.251E+02                                 F               0         Z-component position of node 34 (blade 2, node 5), m
        103    1.676E+01                                 F               0         X-component position of node 35 (blade 2, node 6), m
        104    1.665E+01                                 F               0         Y-component position of node 35 (blade 2, node 6), m
        105    1.223E+02                                 F               0         Z-component position of node 35 (blade 2, node 6), m
        106    1.597E+01                                 F               0         X-component position of node 36 (blade 2, node 7), m
        107    1.914E+01                                 F               0         Y-component position of node 36 (blade 2, node 7), m
        108    1.194E+02                                 F               0         Z-component position of node 36 (blade 2, node 7), m
        109    1.517E+01                                 F               0         X-component position of node 37 (blade 2, node 8), m
        110    2.163E+01                                 F               0         Y-component position of node 37 (blade 2, node 8), m
        111    1.166E+02                                 F               0         Z-component position of node 37 (blade 2, node 8), m
        112    1.437E+01                                 F               0         X-component position of node 38 (blade 2, node 9), m
        113    2.412E+01                                 F               0         Y-component position of node 38 (blade 2, node 9), m
        114    1.137E+02                                 F               0         Z-component position of node 38 (blade 2, node 9), m
        115    1.358E+01                                 F               0         X-component position of node 39 (blade 2, node 10), m
        116    2.661E+01                                 F               0         Y-component position of node 39 (blade 2, node 10), m
        117    1.109E+02                                 F               0         Z-component position of node 39 (blade 2, node 10), m
        118    1.278E+01                                 F               0         X-component position of node 40 (blade 2, node 11), m
        119    2.910E+01                                 F               0         Y-component position of node 40 (blade 2, node 11), m
        120    1.080E+02                                 F               0         Z-component position of node 40 (blade 2, node 11), m
        121    1.199E+01                                 F               0         X-component position of node 41 (blade 2, node 12), m
        122    3.159E+01                                 F               0         Y-component position of node 41 (blade 2, node 12), m
        123    1.052E+02                                 F               0         Z-component position of node 41 (blade 2, node 12), m
        124    1.119E+01                                 F               0         X-component position of node 42 (blade 2, node 13), m
        125    3.408E+01                                 F               0         Y-component position of node 42 (blade 2, node 13), m
        126    1.023E+02                                 F               0         Z-component position of node 42 (blade 2, node 13), m
        127    1.040E+01                                 F               0         X-component position of node 43 (blade 2, node 14), m
        128    3.657E+01                                 F               0         Y-component position of node 43 (blade 2, node 14), m
        129    9.946E+01                                 F               0         Z-component position of node 43 (blade 2, node 14), m
        130    9.601E+00                                 F               0         X-component position of node 44 (blade 2, node 15), m
        131    3.906E+01                                 F               0         Y-component position of node 44 (blade 2, node 15), m
        132    9.661E+01                                 F               0         Z-component position of node 44 (blade 2, node 15), m
        133    8.805E+00                                 F               0         X-component position of node 45 (blade 2, node 16), m
        134    4.155E+01                                 F               0         Y-component position of node 45 (blade 2, node 16), m
        135    9.376E+01                                 F               0         Z-component position of node 45 (blade 2, node 16), m
        136    8.009E+00                                 F               0         X-component position of node 46 (blade 2, node 17), m
        137    4.404E+01                                 F               0         Y-component position of node 46 (blade 2, node 17), m
        138    9.091E+01                                 F               0         Z-component position of node 46 (blade 2, node 17), m
        139    7.214E+00                                 F               0         X-component position of node 47 (blade 2, node 18), m
        140    4.652E+01                                 F               0         Y-component position of node 47 (blade 2, node 18), m
        141    8.806E+01                                 F               0         Z-component position of node 47 (blade 2, node 18), m
        142    6.418E+00                                 F               0         X-component position of node 48 (blade 2, node 19), m
        143    4.901E+01                                 F               0         Y-component position of node 48 (blade 2, node 19), m
        144    8.521E+01                                 F               0         Z-component position of node 48 (blade 2, node 19), m
        145    5.623E+00                                 F               0         X-component position of node 49 (blade 2, node 20), m
        146    5.150E+01                                 F               0         Y-component position of node 49 (blade 2, node 20), m
        147    8.236E+01                                 F               0         Z-component position of node 49 (blade 2, node 20), m
        148    4.827E+00                                 F               0         X-component position of node 50 (blade 2, node 21), m
        149    5.399E+01                                 F               0         Y-component position of node 50 (blade 2, node 21), m
        150    7.950E+01                                 F               0         Z-component position of node 50 (blade 2, node 21), m
        151    4.031E+00                                 F               0         X-component position of node 51 (blade 2, node 22), m
        152    5.648E+01                                 F               0         Y-component position of node 51 (blade 2, node 22), m
        153    7.665E+01                                 F               0         Z-component position of node 51 (blade 2, node 22), m
        154    3.236E+00                                 F               0         X-component position of node 52 (blade 2, node 23), m
        155    5.897E+01                                 F               0         Y-component position of node 52 (blade 2, node 23), m
        156    7.380E+01                                 F               0         Z-component position of node 52 (blade 2, node 23), m
        157    2.440E+00                                 F               0         X-component position of node 53 (blade 2, node 24), m
        158    6.146E+01                                 F               0         Y-component position of node 53 (blade 2, node 24), m
        159    7.095E+01                                 F               0         Z-component position of node 53 (blade 2, node 24), m
        160    1.645E+00                                 F               0         X-component position of node 54 (blade 2, node 25), m
        161    6.395E+01                                 F               0         Y-component position of node 54 (blade 2, node 25), m
        162    6.810E+01                                 F               0         Z-component position of node 54 (blade 2, node 25), m
        163    8.489E-01                                 F               0         X-component position of node 55 (blade 2, node 26), m
        164    6.644E+01                                 F               0         Y-component position of node 55 (blade 2, node 26), m
        165    6.525E+01                                 F               0         Z-component position of node 55 (blade 2, node 26), m
        166    5.337E-02                                 F               0         X-component position of node 56 (blade 2, node 27), m
        167    6.893E+01                                 F               0         Y-component position of node 56 (blade 2, node 27), m
        168    6.240E+01                                 F               0         Z-component position of node 56 (blade 2, node 27), m
        169   -6.211E-01                                 F               0         X-component position of node 57 (blade 2, node 28), m
        170    7.104E+01                                 F               0         Y-component position of node 57 (blade 2, node 28), m
        171    5.998E+01                                 F               0         Z-component position of node 57 (blade 2, node 28), m
        172    2.558E+01                                 F               0         X-component position of node 58 (blade 3, node 1), m
        173   -5.033E+00                                 F               0         Y-component position of node 58 (blade 3, node 1), m
        174    1.543E+02                                 F               0         Z-component position of node 58 (blade 3, node 1), m
        175    2.588E+01                                 F               0         X-component position of node 59 (blade 3, node 2), m
        176   -4.578E+00                                 F               0         Y-component position of node 59 (blade 3, node 2), m
        177    1.555E+02                                 F               0         Z-component position of node 59 (blade 3, node 2), m
        178    3.007E+01                                 F               0         X-component position of node 60 (blade 3, node 3), m
        179    1.609E+00                                 F               0         Y-component position of node 60 (blade 3, node 3), m
        180    1.721E+02                                 F               0         Z-component position of node 60 (blade 3, node 3), m
        181    3.097E+01                                 F               0         X-component position of node 61 (blade 3, node 4), m
        182    2.927E+00                                 F               0         Y-component position of node 61 (blade 3, node 4), m
        183    1.756E+02                                 F               0         Z-component position of node 61 (blade 3, node 4), m
        184    3.186E+01                                 F               0         X-component position of node 62 (blade 3, node 5), m
        185    4.245E+00                                 F               0         Y-component position of node 62 (blade 3, node 5), m
        186    1.791E+02                                 F               0         Z-component position of node 62 (blade 3, node 5), m
        187    3.275E+01                                 F               0         X-component position of node 63 (blade 3, node 6), m
        188    5.563E+00                                 F               0         Y-component position of node 63 (blade 3, node 6), m
        189    1.827E+02                                 F               0         Z-component position of node 63 (blade 3, node 6), m
        190    3.364E+01                                 F               0         X-component position of node 64 (blade 3, node 7), m
        191    6.881E+00                                 F               0         Y-component position of node 64 (blade 3, node 7), m
        192    1.862E+02                                 F               0         Z-component position of node 64 (blade 3, node 7), m
        193    3.454E+01                                 F               0         X-component position of node 65 (blade 3, node 8), m
        194    8.200E+00                                 F               0         Y-component position of node 65 (blade 3, node 8), m
        195    1.897E+02                                 F               0         Z-component position of node 65 (blade 3, node 8), m
        196    3.543E+01                                 F               0         X-component position of node 66 (blade 3, node 9), m
        197    9.518E+00                                 F               0         Y-component position of node 66 (blade 3, node 9), m
        198    1.932E+02                                 F               0         Z-component position of node 66 (blade 3, node 9), m
        199    3.632E+01                                 F               0         X-component position of node 67 (blade 3, node 10), m
        200    1.084E+01                                 F               0         Y-component position of node 67 (blade 3, node 10), m
        201    1.968E+02                                 F               0         Z-component position of node 67 (blade 3, node 10), m
        202    3.722E+01                                 F               0         X-component position of node 68 (blade 3, node 11), m
        203    1.215E+01                                 F               0         Y-component position of node 68 (blade 3, node 11), m
        204    2.003E+02                                 F               0         Z-component position of node 68 (blade 3, node 11), m
        205    3.811E+01                                 F               0         X-component position of node 69 (blade 3, node 12), m
        206    1.347E+01                                 F               0         Y-component position of node 69 (blade 3, node 12), m
        207    2.038E+02                                 F               0         Z-component position of node 69 (blade 3, node 12), m
        208    3.900E+01                                 F               0         X-component position of node 70 (blade 3, node 13), m
        209    1.479E+01                                 F               0         Y-component position of node 70 (blade 3, node 13), m
        210    2.073E+02                                 F               0         Z-component position of node 70 (blade 3, node 13), m
        211    3.989E+01                                 F               0         X-component position of node 71 (blade 3, node 14), m