
Linearized model: Predictions were generated on 30-Jan-2024 at 18:20:32 using OpenFAST, compiled as a 64-bit application using single precision at commit v3.5.1
 linked with  NWTC Subroutine Library; ElastoDyn; InflowWind; AeroDyn; ServoDyn; HydroDyn; MAP++ (<1.20.10>, <Oct-20-2023>)

Description from the FAST input file: CCT-9 Campign 4 model. Input files to be run with OpenFAST 3.5.0. GitHub branch from Lu Wang (https://github.com/luwang00/openfast/tree/dev) compiled on March 7, 2023.

Simulation information:
   Simulation time:                   506.1750 s
   Rotor Speed:                         0.8795 rad/s
   Azimuth:                             4.3076 rad
   Wind Speed:                         10.0000 m/s
   Number of continuous states:         0
   Number of discrete states:           0
   Number of constraint states:         0
   Number of inputs:                  303
   Number of outputs:                   1
   Jacobians included in this file?    No

Order of inputs:
     Column   Operating Point                     Rotating Frame? Derivative Order Description
   ---------- ---------------                     --------------- ---------------- -----------
          1   -1.080E+01                                 F               0         X-component position of node 1 (hub), m
          2    0.000E+00                                 F               0         Y-component position of node 1 (hub), m
          3    1.497E+02                                 F               0         Z-component position of node 1 (hub), m
          4    1.483E+01                                 F               0         X-component position of node 2 (blade 1, node 1), m
          5   -1.567E+00                                 F               0         Y-component position of node 2 (blade 1, node 1), m
          6    1.478E+02                                 F               0         Z-component position of node 2 (blade 1, node 1), m
          7    1.471E+01                                 F               0         X-component position of node 3 (blade 1, node 2), m
          8   -3.200E-01                                 F               0         Y-component position of node 3 (blade 1, node 2), m
          9    1.473E+02                                 F               0         Z-component position of node 3 (blade 1, node 2), m
         10    1.307E+01                                 F               0         X-component position of node 4 (blade 1, node 3), m
         11    1.664E+01                                 F               0         Y-component position of node 4 (blade 1, node 3), m
         12    1.411E+02                                 F               0         Z-component position of node 4 (blade 1, node 3), m
         13    1.272E+01                                 F               0         X-component position of node 5 (blade 1, node 4), m
         14    2.025E+01                                 F               0         Y-component position of node 5 (blade 1, node 4), m
         15    1.397E+02                                 F               0         Z-component position of node 5 (blade 1, node 4), m
         16    1.237E+01                                 F               0         X-component position of node 6 (blade 1, node 5), m
         17    2.387E+01                                 F               0         Y-component position of node 6 (blade 1, node 5), m
         18    1.384E+02                                 F               0         Z-component position of node 6 (blade 1, node 5), m
         19    1.202E+01                                 F               0         X-component position of node 7 (blade 1, node 6), m
         20    2.748E+01                                 F               0         Y-component position of node 7 (blade 1, node 6), m
         21    1.371E+02                                 F               0         Z-component position of node 7 (blade 1, node 6), m
         22    1.167E+01                                 F               0         X-component position of node 8 (blade 1, node 7), m
         23    3.110E+01                                 F               0         Y-component position of node 8 (blade 1, node 7), m
         24    1.357E+02                                 F               0         Z-component position of node 8 (blade 1, node 7), m
         25    1.132E+01                                 F               0         X-component position of node 9 (blade 1, node 8), m
         26    3.471E+01                                 F               0         Y-component position of node 9 (blade 1, node 8), m
         27    1.344E+02                                 F               0         Z-component position of node 9 (blade 1, node 8), m
         28    1.097E+01                                 F               0         X-component position of node 10 (blade 1, node 9), m
         29    3.832E+01                                 F               0         Y-component position of node 10 (blade 1, node 9), m
         30    1.331E+02                                 F               0         Z-component position of node 10 (blade 1, node 9), m
         31    1.062E+01                                 F               0         X-component position of node 11 (blade 1, node 10), m
         32    4.194E+01                                 F               0         Y-component position of node 11 (blade 1, node 10), m
         33    1.317E+02                                 F               0         Z-component position of node 11 (blade 1, node 10), m
         34    1.027E+01                                 F               0         X-component position of node 12 (blade 1, node 11), m
         35    4.555E+01                                 F               0         Y-component position of node 12 (blade 1, node 11), m
         36    1.304E+02                                 F               0         Z-component position of node 12 (blade 1, node 11), m
         37    9.924E+00                                 F               0         X-component position of node 13 (blade 1, node 12), m
         38    4.917E+01                                 F               0         Y-component position of node 13 (blade 1, node 12), m
         39    1.291E+02                                 F               0         Z-component position of node 13 (blade 1, node 12), m
         40    9.574E+00                                 F               0         X-component position of node 14 (blade 1, node 13), m
         41    5.278E+01                                 F               0         Y-component position of node 14 (blade 1, node 13), m
         42    1.277E+02                                 F               0         Z-component position of node 14 (blade 1, node 13), m
         43    9.225E+00                                 F               0         X-component position of node 15 (blade 1, node 14), m
         44    5.639E+01                                 F               0         Y-component position of node 15 (blade 1, node 14), m
         45    1.264E+02                                 F               0         Z-component position of node 15 (blade 1, node 14), m
         46    8.875E+00                                 F               0         X-component position of node 16 (blade 1, node 15), m
         47    6.001E+01                                 F               0         Y-component position of node 16 (blade 1, node 15), m
         48    1.251E+02                                 F               0         Z-component position of node 16 (blade 1, node 15), m
         49    8.526E+00                                 F               0         X-component position of node 17 (blade 1, node 16), m
         50    6.362E+01                                 F               0         Y-component position of node 17 (blade 1, node 16), m
         51    1.237E+02                                 F               0         Z-component position of node 17 (blade 1, node 16), m
         52    8.176E+00                                 F               0         X-component position of node 18 (blade 1, node 17), m
         53    6.723E+01                                 F               0         Y-component position of node 18 (blade 1, node 17), m
         54    1.224E+02                                 F               0         Z-component position of node 18 (blade 1, node 17), m
         55    7.827E+00                                 F               0         X-component position of node 19 (blade 1, node 18), m
         56    7.085E+01                                 F               0         Y-component position of node 19 (blade 1, node 18), m
         57    1.211E+02                                 F               0         Z-component position of node 19 (blade 1, node 18), m
         58    7.477E+00                                 F               0         X-component position of node 20 (blade 1, node 19), m
         59    7.446E+01                                 F               0         Y-component position of node 20 (blade 1, node 19), m
         60    1.197E+02                                 F               0         Z-component position of node 20 (blade 1, node 19), m
         61    7.128E+00                                 F               0         X-component position of node 21 (blade 1, node 20), m
         62    7.808E+01                                 F               0         Y-component position of node 21 (blade 1, node 20), m
         63    1.184E+02                                 F               0         Z-component position of node 21 (blade 1, node 20), m
         64    6.779E+00                                 F               0         X-component position of node 22 (blade 1, node 21), m
         65    8.169E+01                                 F               0         Y-component position of node 22 (blade 1, node 21), m
         66    1.171E+02                                 F               0         Z-component position of node 22 (blade 1, node 21), m
         67    6.429E+00                                 F               0         X-component position of node 23 (blade 1, node 22), m
         68    8.530E+01                                 F               0         Y-component position of node 23 (blade 1, node 22), m
         69    1.157E+02                                 F               0         Z-component position of node 23 (blade 1, node 22), m
         70    6.080E+00                                 F               0         X-component position of node 24 (blade 1, node 23), m
         71    8.892E+01                                 F               0         Y-component position of node 24 (blade 1, node 23), m
         72    1.144E+02                                 F               0         Z-component position of node 24 (blade 1, node 23), m
         73    5.730E+00                                 F               0         X-component position of node 25 (blade 1, node 24), m
         74    9.253E+01                                 F               0         Y-component position of node 25 (blade 1, node 24), m
         75    1.131E+02                                 F               0         Z-component position of node 25 (blade 1, node 24), m
         76    5.381E+00                                 F               0         X-component position of node 26 (blade 1, node 25), m
         77    9.614E+01                                 F               0         Y-component position of node 26 (blade 1, node 25), m
         78    1.117E+02                                 F               0         Z-component position of node 26 (blade 1, node 25), m
         79    5.031E+00                                 F               0         X-component position of node 27 (blade 1, node 26), m
         80    9.976E+01                                 F               0         Y-component position of node 27 (blade 1, node 26), m
         81    1.104E+02                                 F               0         Z-component position of node 27 (blade 1, node 26), m
         82    4.682E+00                                 F               0         X-component position of node 28 (blade 1, node 27), m
         83    1.034E+02                                 F               0         Y-component position of node 28 (blade 1, node 27), m
         84    1.091E+02                                 F               0         Z-component position of node 28 (blade 1, node 27), m
         85    4.385E+00                                 F               0         X-component position of node 29 (blade 1, node 28), m
         86    1.064E+02                                 F               0         Y-component position of node 29 (blade 1, node 28), m
         87    1.079E+02                                 F               0         Z-component position of node 29 (blade 1, node 28), m
         88    1.653E+01                                 F               0         X-component position of node 30 (blade 2, node 1), m
         89   -7.623E+00                                 F               0         Y-component position of node 30 (blade 2, node 1), m
         90    1.550E+02                                 F               0         Z-component position of node 30 (blade 2, node 1), m
         91    1.682E+01                                 F               0         X-component position of node 31 (blade 2, node 2), m
         92   -7.835E+00                                 F               0         Y-component position of node 31 (blade 2, node 2), m
         93    1.563E+02                                 F               0         Z-component position of node 31 (blade 2, node 2), m
         94    2.076E+01                                 F               0         X-component position of node 32 (blade 2, node 3), m
         95   -1.072E+01                                 F               0         Y-component position of node 32 (blade 2, node 3), m
         96    1.738E+02                                 F               0         Z-component position of node 32 (blade 2, node 3), m
         97    2.160E+01                                 F               0         X-component position of node 33 (blade 2, node 4), m
         98   -1.133E+01                                 F               0         Y-component position of node 33 (blade 2, node 4), m
         99    1.775E+02                                 F               0         Z-component position of node 33 (blade 2, node 4), m
        100    2.244E+01                                 F               0         X-component position of node 34 (blade 2, node 5), m
        101   -1.195E+01                                 F               0         Y-component position of node 34 (blade 2, node 5), m
        102    1.813E+02                                 F               0         Z-component position of node 34 (blade 2, node 5), m
        103    2.328E+01                                 F               0         X-component position of node 35 (blade 2, node 6), m
        104   -1.256E+01                                 F               0         Y-component position of node 35 (blade 2, node 6), m
        105    1.850E+02                                 F               0         Z-component position of node 35 (blade 2, node 6), m
        106    2.412E+01                                 F               0         X-component position of node 36 (blade 2, node 7), m
        107   -1.318E+01                                 F               0         Y-component position of node 36 (blade 2, node 7), m
        108    1.887E+02                                 F               0         Z-component position of node 36 (blade 2, node 7), m
        109    2.496E+01                                 F               0         X-component position of node 37 (blade 2, node 8), m
        110   -1.379E+01                                 F               0         Y-component position of node 37 (blade 2, node 8), m
        111    1.924E+02                                 F               0         Z-component position of node 37 (blade 2, node 8), m
        112    2.580E+01                                 F               0         X-component position of node 38 (blade 2, node 9), m
        113   -1.440E+01                                 F               0         Y-component position of node 38 (blade 2, node 9), m
        114    1.962E+02                                 F               0         Z-component position of node 38 (blade 2, node 9), m
        115    2.664E+01                                 F               0         X-component position of node 39 (blade 2, node 10), m
        116   -1.502E+01                                 F               0         Y-component position of node 39 (blade 2, node 10), m
        117    1.999E+02                                 F               0         Z-component position of node 39 (blade 2, node 10), m
        118    2.748E+01                                 F               0         X-component position of node 40 (blade 2, node 11), m
        119   -1.563E+01                                 F               0         Y-component position of node 40 (blade 2, node 11), m
        120    2.036E+02                                 F               0         Z-component position of node 40 (blade 2, node 11), m
        121    2.832E+01                                 F               0         X-component position of node 41 (blade 2, node 12), m
        122   -1.625E+01                                 F               0         Y-component position of node 41 (blade 2, node 12), m
        123    2.073E+02                                 F               0         Z-component position of node 41 (blade 2, node 12), m
        124    2.916E+01                                 F               0         X-component position of node 42 (blade 2, node 13), m
        125   -1.686E+01                                 F               0         Y-component position of node 42 (blade 2, node 13), m
        126    2.111E+02                                 F               0         Z-component position of node 42 (blade 2, node 13), m
        127    3.000E+01                                 F               0         X-component position of node 43 (blade 2, node 14), m
        128   -1.748E+01                                 F               0         Y-component position of node 43 (blade 2, node 14), m
        129    2.148E+02                                 F               0         Z-component position of node 43 (blade 2, node 14), m
        130    3.084E+01                                 F               0         X-component position of node 44 (blade 2, node 15), m
        131   -1.809E+01                                 F               0         Y-component position of node 44 (blade 2, node 15), m
        132    2.185E+02                                 F               0         Z-component position of node 44 (blade 2, node 15), m
        133    3.168E+01                                 F               0         X-component position of node 45 (blade 2, node 16), m
        134   -1.870E+01                                 F               0         Y-component position of node 45 (blade 2, node 16), m
        135    2.222E+02                                 F               0         Z-component position of node 45 (blade 2, node 16), m
        136    3.252E+01                                 F               0         X-component position of node 46 (blade 2, node 17), m
        137   -1.932E+01                                 F               0         Y-component position of node 46 (blade 2, node 17), m
        138    2.260E+02                                 F               0         Z-component position of node 46 (blade 2, node 17), m
        139    3.336E+01                                 F               0         X-component position of node 47 (blade 2, node 18), m
        140   -1.993E+01                                 F               0         Y-component position of node 47 (blade 2, node 18), m
        141    2.297E+02                                 F               0         Z-component position of node 47 (blade 2, node 18), m
        142    3.420E+01                                 F               0         X-component position of node 48 (blade 2, node 19), m
        143   -2.055E+01                                 F               0         Y-component position of node 48 (blade 2, node 19), m
        144    2.334E+02                                 F               0         Z-component position of node 48 (blade 2, node 19), m
        145    3.504E+01                                 F               0         X-component position of node 49 (blade 2, node 20), m
        146   -2.116E+01                                 F               0         Y-component position of node 49 (blade 2, node 20), m
        147    2.371E+02                                 F               0         Z-component position of node 49 (blade 2, node 20), m
        148    3.588E+01                                 F               0         X-component position of node 50 (blade 2, node 21), m
        149   -2.178E+01                                 F               0         Y-component position of node 50 (blade 2, node 21), m
        150    2.409E+02                                 F               0         Z-component position of node 50 (blade 2, node 21), m
        151    3.672E+01                                 F               0         X-component position of node 51 (blade 2, node 22), m
        152   -2.239E+01                                 F               0         Y-component position of node 51 (blade 2, node 22), m
        153    2.446E+02                                 F               0         Z-component position of node 51 (blade 2, node 22), m
        154    3.756E+01                                 F               0         X-component position of node 52 (blade 2, node 23), m
        155   -2.300E+01                                 F               0         Y-component position of node 52 (blade 2, node 23), m
        156    2.483E+02                                 F               0         Z-component position of node 52 (blade 2, node 23), m
        157    3.840E+01                                 F               0         X-component position of node 53 (blade 2, node 24), m
        158   -2.362E+01                                 F               0         Y-component position of node 53 (blade 2, node 24), m
        159    2.520E+02                                 F               0         Z-component position of node 53 (blade 2, node 24), m
        160    3.923E+01                                 F               0         X-component position of node 54 (blade 2, node 25), m
        161   -2.423E+01                                 F               0         Y-component position of node 54 (blade 2, node 25), m
        162    2.558E+02                                 F               0         Z-component position of node 54 (blade 2, node 25), m
        163    4.007E+01                                 F               0         X-component position of node 55 (blade 2, node 26), m
        164   -2.485E+01                                 F               0         Y-component position of node 55 (blade 2, node 26), m
        165    2.595E+02                                 F               0         Z-component position of node 55 (blade 2, node 26), m
        166    4.091E+01                                 F               0         X-component position of node 56 (blade 2, node 27), m
        167   -2.546E+01                                 F               0         Y-component position of node 56 (blade 2, node 27), m
        168    2.632E+02                                 F               0         Z-component position of node 56 (blade 2, node 27), m
        169    4.163E+01                                 F               0         X-component position of node 57 (blade 2, node 28), m
        170   -2.598E+01                                 F               0         Y-component position of node 57 (blade 2, node 28), m
        171    2.664E+02                                 F               0         Z-component position of node 57 (blade 2, node 28), m
        172    1.463E+01                                 F               0         X-component position of node 58 (blade 3, node 1), m
        173   -1.104E+01                                 F               0         Y-component position of node 58 (blade 3, node 1), m
        174    1.463E+02                                 F               0         Z-component position of node 58 (blade 3, node 1), m
        175    1.446E+01                                 F               0         X-component position of node 59 (blade 3, node 2), m
        176   -1.208E+01                                 F               0         Y-component position of node 59 (blade 3, node 2), m
        177    1.454E+02                                 F               0         Z-component position of node 59 (blade 3, node 2), m
        178    1.216E+01                                 F               0         X-component position of node 60 (blade 3, node 3), m
        179   -2.615E+01                                 F               0         Y-component position of node 60 (blade 3, node 3), m
        180    1.342E+02                                 F               0         Z-component position of node 60 (blade 3, node 3), m
        181    1.167E+01                                 F               0         X-component position of node 61 (blade 3, node 4), m
        182   -2.915E+01                                 F               0         Y-component position of node 61 (blade 3, node 4), m
        183    1.318E+02                                 F               0         Z-component position of node 61 (blade 3, node 4), m
        184    1.118E+01                                 F               0         X-component position of node 62 (blade 3, node 5), m
        185   -3.215E+01                                 F               0         Y-component position of node 62 (blade 3, node 5), m
        186    1.294E+02                                 F               0         Z-component position of node 62 (blade 3, node 5), m
        187    1.069E+01                                 F               0         X-component position of node 63 (blade 3, node 6), m
        188   -3.515E+01                                 F               0         Y-component position of node 63 (blade 3, node 6), m
        189    1.270E+02                                 F               0         Z-component position of node 63 (blade 3, node 6), m
        190    1.020E+01                                 F               0         X-component position of node 64 (blade 3, node 7), m
        191   -3.815E+01                                 F               0         Y-component position of node 64 (blade 3, node 7), m
        192    1.246E+02                                 F               0         Z-component position of node 64 (blade 3, node 7), m
        193    9.708E+00                                 F               0         X-component position of node 65 (blade 3, node 8), m
        194   -4.115E+01                                 F               0         Y-component position of node 65 (blade 3, node 8), m
        195    1.223E+02                                 F               0         Z-component position of node 65 (blade 3, node 8), m
        196    9.218E+00                                 F               0         X-component position of node 66 (blade 3, node 9), m
        197   -4.415E+01                                 F               0         Y-component position of node 66 (blade 3, node 9), m
        198    1.199E+02                                 F               0         Z-component position of node 66 (blade 3, node 9), m
        199    8.728E+00                                 F               0         X-component position of node 67 (blade 3, node 10), m
        200   -4.715E+01                                 F               0         Y-component position of node 67 (blade 3, node 10), m
        201    1.175E+02                                 F               0         Z-component position of node 67 (blade 3, node 10), m
        202    8.238E+00                                 F               0         X-component position of node 68 (blade 3, node 11), m
        203   -5.015E+01                                 F               0         Y-component position of node 68 (blade 3, node 11), m
        204    1.151E+02                                 F               0         Z-component position of node 68 (blade 3, node 11), m
        205    7.748E+00                                 F               0         X-component position of node 69 (blade 3, node 12), m
        206   -5.315E+01                                 F               0         Y-component position of node 69 (blade 3, node 12), m
        207    1.127E+02                                 F               0         Z-component position of node 69 (blade 3, node 12), m
        208    7.258E+00                                 F               0         X-component position of node 70 (blade 3, node 13), m
        209   -5.615E+01                                 F               0         Y-component position of node 70 (blade 3, node 13), m
        210    1.103E+02                                 F               0         Z-component position of node 70 (blade 3, node 13), m
        211    6.768E+00                                 F               0         X-component position of node 71 (blade 3, node 14), m