
Linearized model: Predictions were generated on 12-Feb-2024 at 18:31:58 using OpenFAST, compiled as a 64-bit application using single precision at commit v3.5.1
 linked with  NWTC Subroutine Library; ElastoDyn; InflowWind; AeroDyn; ServoDyn; HydroDyn; MAP++ (<1.20.10>, <Oct-20-2023>)

Description from the FAST input file: CCT-9 Campign 4 model. Input files to be run with OpenFAST 3.5.0. GitHub branch from Lu Wang (https://github.com/luwang00/openfast/tree/dev) compiled on March 7, 2023.

Simulation information:
   Simulation time:                  1005.2250 s
   Rotor Speed:                         1.0470 rad/s
   Azimuth:                             5.1347 rad
   Wind Speed:                         12.0000 m/s
   Number of continuous states:         0
   Number of discrete states:           0
   Number of constraint states:         0
   Number of inputs:                 1746
   Number of outputs:                   4
   Jacobians included in this file?    No

Order of inputs:
     Column   Operating Point                     Rotating Frame? Derivative Order Description
   ---------- ---------------                     --------------- ---------------- -----------
          1    1.518E+01                                 F               0         Tower X translation displacement, node 1, m
          2   -1.056E+00                                 F               0         Tower Y translation displacement, node 1, m
          3   -4.713E-01                                 F               0         Tower Z translation displacement, node 1, m
          4    1.704E+01                                 F               0         Tower X translation displacement, node 2, m
          5   -1.612E+00                                 F               0         Tower Y translation displacement, node 2, m
          6   -6.251E-01                                 F               0         Tower Z translation displacement, node 2, m
          7    1.890E+01                                 F               0         Tower X translation displacement, node 3, m
          8   -2.168E+00                                 F               0         Tower Y translation displacement, node 3, m
          9   -7.789E-01                                 F               0         Tower Z translation displacement, node 3, m
         10    2.077E+01                                 F               0         Tower X translation displacement, node 4, m
         11   -2.724E+00                                 F               0         Tower Y translation displacement, node 4, m
         12   -9.326E-01                                 F               0         Tower Z translation displacement, node 4, m
         13    2.263E+01                                 F               0         Tower X translation displacement, node 5, m
         14   -3.281E+00                                 F               0         Tower Y translation displacement, node 5, m
         15   -1.086E+00                                 F               0         Tower Z translation displacement, node 5, m
         16    2.449E+01                                 F               0         Tower X translation displacement, node 6, m
         17   -3.837E+00                                 F               0         Tower Y translation displacement, node 6, m
         18   -1.240E+00                                 F               0         Tower Z translation displacement, node 6, m
         19    2.635E+01                                 F               0         Tower X translation displacement, node 7, m
         20   -4.393E+00                                 F               0         Tower Y translation displacement, node 7, m
         21   -1.394E+00                                 F               0         Tower Z translation displacement, node 7, m
         22    2.821E+01                                 F               0         Tower X translation displacement, node 8, m
         23   -4.949E+00                                 F               0         Tower Y translation displacement, node 8, m
         24   -1.548E+00                                 F               0         Tower Z translation displacement, node 8, m
         25    3.007E+01                                 F               0         Tower X translation displacement, node 9, m
         26   -5.505E+00                                 F               0         Tower Y translation displacement, node 9, m
         27   -1.701E+00                                 F               0         Tower Z translation displacement, node 9, m
         28    3.194E+01                                 F               0         Tower X translation displacement, node 10, m
         29   -6.062E+00                                 F               0         Tower Y translation displacement, node 10, m
         30   -1.855E+00                                 F               0         Tower Z translation displacement, node 10, m
         31    3.380E+01                                 F               0         Tower X translation displacement, node 11, m
         32   -6.618E+00                                 F               0         Tower Y translation displacement, node 11, m
         33   -2.009E+00                                 F               0         Tower Z translation displacement, node 11, m
         34    9.885E-01,  1.500E-02, -1.502E-01         F               0         Tower X orientation angle, node 1, rad
         35   -8.053E-03,  9.989E-01,  4.676E-02         F               0         Tower Y orientation angle, node 1, rad
         36    1.507E-01, -4.502E-02,  9.876E-01         F               0         Tower Z orientation angle, node 1, rad
         37    9.885E-01,  1.500E-02, -1.502E-01         F               0         Tower X orientation angle, node 2, rad
         38   -8.053E-03,  9.989E-01,  4.676E-02         F               0         Tower Y orientation angle, node 2, rad
         39    1.507E-01, -4.502E-02,  9.876E-01         F               0         Tower Z orientation angle, node 2, rad
         40    9.885E-01,  1.500E-02, -1.502E-01         F               0         Tower X orientation angle, node 3, rad
         41   -8.053E-03,  9.989E-01,  4.676E-02         F               0         Tower Y orientation angle, node 3, rad
         42    1.507E-01, -4.502E-02,  9.876E-01         F               0         Tower Z orientation angle, node 3, rad
         43    9.885E-01,  1.500E-02, -1.502E-01         F               0         Tower X orientation angle, node 4, rad
         44   -8.053E-03,  9.989E-01,  4.676E-02         F               0         Tower Y orientation angle, node 4, rad
         45    1.507E-01, -4.502E-02,  9.876E-01         F               0         Tower Z orientation angle, node 4, rad
         46    9.885E-01,  1.500E-02, -1.502E-01         F               0         Tower X orientation angle, node 5, rad
         47   -8.053E-03,  9.989E-01,  4.676E-02         F               0         Tower Y orientation angle, node 5, rad
         48    1.507E-01, -4.502E-02,  9.876E-01         F               0         Tower Z orientation angle, node 5, rad
         49    9.885E-01,  1.500E-02, -1.502E-01         F               0         Tower X orientation angle, node 6, rad
         50   -8.053E-03,  9.989E-01,  4.676E-02         F               0         Tower Y orientation angle, node 6, rad
         51    1.507E-01, -4.502E-02,  9.876E-01         F               0         Tower Z orientation angle, node 6, rad
         52    9.885E-01,  1.500E-02, -1.502E-01         F               0         Tower X orientation angle, node 7, rad
         53   -8.053E-03,  9.989E-01,  4.676E-02         F               0         Tower Y orientation angle, node 7, rad
         54    1.507E-01, -4.502E-02,  9.876E-01         F               0         Tower Z orientation angle, node 7, rad
         55    9.885E-01,  1.500E-02, -1.502E-01         F               0         Tower X orientation angle, node 8, rad
         56   -8.053E-03,  9.989E-01,  4.676E-02         F               0         Tower Y orientation angle, node 8, rad
         57    1.507E-01, -4.502E-02,  9.876E-01         F               0         Tower Z orientation angle, node 8, rad
         58    9.885E-01,  1.500E-02, -1.502E-01         F               0         Tower X orientation angle, node 9, rad
         59   -8.053E-03,  9.989E-01,  4.676E-02         F               0         Tower Y orientation angle, node 9, rad
         60    1.507E-01, -4.502E-02,  9.876E-01         F               0         Tower Z orientation angle, node 9, rad
         61    9.885E-01,  1.500E-02, -1.502E-01         F               0         Tower X orientation angle, node 10, rad
         62   -8.053E-03,  9.989E-01,  4.676E-02         F               0         Tower Y orientation angle, node 10, rad
         63    1.507E-01, -4.502E-02,  9.876E-01         F               0         Tower Z orientation angle, node 10, rad
         64    9.885E-01,  1.500E-02, -1.502E-01         F               0         Tower X orientation angle, node 11, rad
         65   -8.053E-03,  9.989E-01,  4.676E-02         F               0         Tower Y orientation angle, node 11, rad
         66    1.507E-01, -4.502E-02,  9.876E-01         F               0         Tower Z orientation angle, node 11, rad
         67   -4.420E-04                                 F               0         Tower X translation velocity, node 1, m/s
         68    5.698E-03                                 F               0         Tower Y translation velocity, node 1, m/s
         69    4.165E-03                                 F               0         Tower Z translation velocity, node 1, m/s
         70   -8.176E-04                                 F               0         Tower X translation velocity, node 2, m/s
         71    9.465E-03                                 F               0         Tower Y translation velocity, node 2, m/s
         72    4.394E-03                                 F               0         Tower Z translation velocity, node 2, m/s
         73   -1.193E-03                                 F               0         Tower X translation velocity, node 3, m/s
         74    1.323E-02                                 F               0         Tower Y translation velocity, node 3, m/s
         75    4.623E-03                                 F               0         Tower Z translation velocity, node 3, m/s
         76   -1.569E-03                                 F               0         Tower X translation velocity, node 4, m/s
         77    1.700E-02                                 F               0         Tower Y translation velocity, node 4, m/s
         78    4.852E-03                                 F               0         Tower Z translation velocity, node 4, m/s
         79   -1.944E-03                                 F               0         Tower X translation velocity, node 5, m/s
         80    2.077E-02                                 F               0         Tower Y translation velocity, node 5, m/s
         81    5.081E-03                                 F               0         Tower Z translation velocity, node 5, m/s
         82   -2.320E-03                                 F               0         Tower X translation velocity, node 6, m/s
         83    2.453E-02                                 F               0         Tower Y translation velocity, node 6, m/s
         84    5.310E-03                                 F               0         Tower Z translation velocity, node 6, m/s
         85   -2.696E-03                                 F               0         Tower X translation velocity, node 7, m/s
         86    2.830E-02                                 F               0         Tower Y translation velocity, node 7, m/s
         87    5.539E-03                                 F               0         Tower Z translation velocity, node 7, m/s
         88   -3.071E-03                                 F               0         Tower X translation velocity, node 8, m/s
         89    3.207E-02                                 F               0         Tower Y translation velocity, node 8, m/s
         90    5.769E-03                                 F               0         Tower Z translation velocity, node 8, m/s
         91   -3.447E-03                                 F               0         Tower X translation velocity, node 9, m/s
         92    3.584E-02                                 F               0         Tower Y translation velocity, node 9, m/s
         93    5.998E-03                                 F               0         Tower Z translation velocity, node 9, m/s
         94   -3.822E-03                                 F               0         Tower X translation velocity, node 10, m/s
         95    3.960E-02                                 F               0         Tower Y translation velocity, node 10, m/s
         96    6.227E-03                                 F               0         Tower Z translation velocity, node 10, m/s
         97   -4.198E-03                                 F               0         Tower X translation velocity, node 11, m/s
         98    4.337E-02                                 F               0         Tower Y translation velocity, node 11, m/s
         99    6.456E-03                                 F               0         Tower Z translation velocity, node 11, m/s
        100    3.510E+01                                 F               0         Hub X translation displacement, node 1, m
        101   -7.133E+00                                 F               0         Hub Y translation displacement, node 1, m
        102   -4.848E-01                                 F               0         Hub Z translation displacement, node 1, m
        103    9.674E-01,  1.962E-02, -2.526E-01         F               0         Hub X orientation angle, node 1, rad
        104   -2.343E-01,  4.488E-01, -8.624E-01         F               0         Hub Y orientation angle, node 1, rad
        105    9.643E-02,  8.934E-01,  4.388E-01         F               0         Hub Z orientation angle, node 1, rad
        106    1.013E+00                                 F               0         Hub X rotation velocity, node 1, rad/s
        107    2.051E-02                                 F               0         Hub Y rotation velocity, node 1, rad/s
        108   -2.643E-01                                 F               0         Hub Z rotation velocity, node 1, rad/s
        109    9.739E-01,  6.301E-03, -2.269E-01         F               0         Blade root 1 X orientation angle, node 1, rad
        110   -2.055E-01,  4.492E-01, -8.695E-01         F               0         Blade root 1 Y orientation angle, node 1, rad
        111    9.643E-02,  8.934E-01,  4.388E-01         F               0         Blade root 1 Z orientation angle, node 1, rad
        112    9.610E-01,  3.320E-03, -2.765E-01         F               0         Blade root 2 X orientation angle, node 1, rad
        113    2.293E-01,  5.496E-01,  8.033E-01         F               0         Blade root 2 Y orientation angle, node 1, rad
        114    1.547E-01, -8.354E-01,  5.274E-01         F               0         Blade root 2 Z orientation angle, node 1, rad
        115    9.660E-01,  4.923E-02, -2.540E-01         F               0         Blade root 3 X orientation angle, node 1, rad
        116    6.230E-02, -9.971E-01,  4.368E-02         F               0         Blade root 3 Y orientation angle, node 1, rad
        117   -2.511E-01, -5.801E-02, -9.662E-01         F               0         Blade root 3 Z orientation angle, node 1, rad
        118    3.506E+01                                 F               0         Blade 1 X translation displacement, node 1, m
        119   -2.184E+00                                 F               0         Blade 1 Y translation displacement, node 1, m
        120   -3.564E+00                                 F               0         Blade 1 Z translation displacement, node 1, m
        121    3.505E+01                                 F               0         Blade 1 X translation displacement, node 2, m
        122   -9.912E-01                                 F               0         Blade 1 Y translation displacement, node 2, m
        123   -4.306E+00                                 F               0         Blade 1 Z translation displacement, node 2, m
        124    3.490E+01                                 F               0         Blade 1 X translation displacement, node 3, m
        125    1.523E+01                                 F               0         Blade 1 Y translation displacement, node 3, m
        126   -1.439E+01                                 F               0         Blade 1 Z translation displacement, node 3, m
        127    3.487E+01                                 F               0         Blade 1 X translation displacement, node 4, m
        128    1.868E+01                                 F               0         Blade 1 Y translation displacement, node 4, m
        129   -1.654E+01                                 F               0         Blade 1 Z translation displacement, node 4, m
        130    3.484E+01                                 F               0         Blade 1 X translation displacement, node 5, m
        131    2.214E+01                                 F               0         Blade 1 Y translation displacement, node 5, m
        132   -1.869E+01                                 F               0         Blade 1 Z translation displacement, node 5, m
        133    3.481E+01                                 F               0         Blade 1 X translation displacement, node 6, m
        134    2.559E+01                                 F               0         Blade 1 Y translation displacement, node 6, m
        135   -2.084E+01                                 F               0         Blade 1 Z translation displacement, node 6, m
        136    3.478E+01                                 F               0         Blade 1 X translation displacement, node 7, m
        137    2.905E+01                                 F               0         Blade 1 Y translation displacement, node 7, m
        138   -2.299E+01                                 F               0         Blade 1 Z translation displacement, node 7, m
        139    3.475E+01                                 F               0         Blade 1 X translation displacement, node 8, m
        140    3.250E+01                                 F               0         Blade 1 Y translation displacement, node 8, m
        141   -2.514E+01                                 F               0         Blade 1 Z translation displacement, node 8, m
        142    3.471E+01                                 F               0         Blade 1 X translation displacement, node 9, m
        143    3.596E+01                                 F               0         Blade 1 Y translation displacement, node 9, m
        144   -2.729E+01                                 F               0         Blade 1 Z translation displacement, node 9, m
        145    3.468E+01                                 F               0         Blade 1 X translation displacement, node 10, m
        146    3.941E+01                                 F               0         Blade 1 Y translation displacement, node 10, m
        147   -2.944E+01                                 F               0         Blade 1 Z translation displacement, node 10, m
        148    3.465E+01                                 F               0         Blade 1 X translation displacement, node 11, m
        149    4.287E+01                                 F               0         Blade 1 Y translation displacement, node 11, m
        150   -3.159E+01                                 F               0         Blade 1 Z translation displacement, node 11, m
        151    3.462E+01                                 F               0         Blade 1 X translation displacement, node 12, m
        152    4.633E+01                                 F               0         Blade 1 Y translation displacement, node 12, m
        153   -3.374E+01                                 F               0         Blade 1 Z translation displacement, node 12, m
        154    3.459E+01                                 F               0         Blade 1 X translation displacement, node 13, m
        155    4.978E+01                                 F               0         Blade 1 Y translation displacement, node 13, m
        156   -3.589E+01                                 F               0         Blade 1 Z translation displacement, node 13, m
        157    3.456E+01                                 F               0         Blade 1 X translation displacement, node 14, m
        158    5.324E+01                                 F               0         Blade 1 Y translation displacement, node 14, m
        159   -3.804E+01                                 F               0         Blade 1 Z translation displacement, node 14, m
        160    3.453E+01                                 F               0         Blade 1 X translation displacement, node 15, m
        161    5.669E+01                                 F               0         Blade 1 Y translation displacement, node 15, m
        162   -4.019E+01                                 F               0         Blade 1 Z translation displacement, node 15, m
        163    3.450E+01                                 F               0         Blade 1 X translation displacement, node 16, m
        164    6.015E+01                                 F               0         Blade 1 Y translation displacement, node 16, m
        165   -4.234E+01                                 F               0         Blade 1 Z translation displacement, node 16, m
        166    3.446E+01                                 F               0         Blade 1 X translation displacement, node 17, m
        167    6.360E+01                                 F               0         Blade 1 Y translation displacement, node 17, m
        168   -4.449E+01                                 F               0         Blade 1 Z translation displacement, node 17, m
        169    3.443E+01                                 F               0         Blade 1 X translation displacement, node 18, m
        170    6.706E+01                                 F               0         Blade 1 Y translation displacement, node 18, m
        171   -4.664E+01                                 F               0         Blade 1 Z translation displacement, node 18, m
        172    3.440E+01                                 F               0         Blade 1 X translation displacement, node 19, m
        173    7.051E+01                                 F               0         Blade 1 Y translation displacement, node 19, m
        174   -4.879E+01                                 F               0         Blade 1 Z translation displacement, node 19, m
        175    3.437E+01                                 F               0         Blade 1 X translation displacement, node 20, m
        176    7.397E+01                                 F               0         Blade 1 Y translation displacement, node 20, m
        177   -5.093E+01                                 F               0         Blade 1 Z translation displacement, node 20, m
        178    3.434E+01                                 F               0         Blade 1 X translation displacement, node 21, m
        179    7.742E+01                                 F               0         Blade 1 Y translation displacement, node 21, m
        180   -5.308E+01                                 F               0         Blade 1 Z translation displacement, node 21, m
        181    3.431E+01                                 F               0         Blade 1 X translation displacement, node 22, m
        182    8.088E+01                                 F               0         Blade 1 Y translation displacement, node 22, m
        183   -5.523E+01                                 F               0         Blade 1 Z translation displacement, node 22, m
        184    3.428E+01                                 F               0         Blade 1 X translation displacement, node 23, m
        185    8.434E+01                                 F               0         Blade 1 Y translation displacement, node 23, m
        186   -5.738E+01                                 F               0         Blade 1 Z translation displacement, node 23, m
        187    3.425E+01                                 F               0         Blade 1 X translation displacement, node 24, m
        188    8.779E+01                                 F               0         Blade 1 Y translation displacement, node 24, m
        189   -5.953E+01                                 F               0         Blade 1 Z translation displacement, node 24, m
        190    3.421E+01                                 F               0         Blade 1 X translation displacement, node 25, m
        191    9.125E+01                                 F               0         Blade 1 Y translation displacement, node 25, m
        192   -6.168E+01                                 F               0         Blade 1 Z translation displacement, node 25, m
        193    3.418E+01                                 F               0         Blade 1 X translation displacement, node 26, m
        194    9.470E+01                                 F               0         Blade 1 Y translation displacement, node 26, m
        195   -6.383E+01                                 F               0         Blade 1 Z translation displacement, node 26, m
        196    3.415E+01                                 F               0         Blade 1 X translation displacement, node 27, m
        197    9.816E+01                                 F               0         Blade 1 Y translation displacement, node 27, m
        198   -6.598E+01                                 F               0         Blade 1 Z translation displacement, node 27, m
        199    3.412E+01                                 F               0         Blade 1 X translation displacement, node 28, m
        200    1.011E+02                                 F               0         Blade 1 Y translation displacement, node 28, m
        201   -6.780E+01                                 F               0         Blade 1 Z translation displacement, node 28, m
        202    9.604E-01, -1.992E-01,  1.946E-01         F               0         Blade 1 X orientation angle, node 1, rad
        203    2.613E-01,  4.027E-01, -8.773E-01         F               0         Blade 1 Y orientation angle, node 1, rad
        204    9.643E-02,  8.934E-01,  4.388E-01         F               0         Blade 1 Z orientation angle, node 1, rad
        205    9.604E-01, -1.992E-01,  1.946E-01         F               0         Blade 1 X orientation angle, node 2, rad
        206    2.613E-01,  4.027E-01, -8.773E-01         F               0         Blade 1 Y orientation angle, node 2, rad
        207    9.643E-02,  8.934E-01,  4.388E-01         F               0         Blade 1 Z orientation angle, node 2, rad
        208    9.950E-01, -9.813E-02, -1.888E-02         F               0         Blade 1 X orientation angle, node 3, rad
        209    2.619E-02,  4.384E-01, -8.984E-01         F               0         Blade 1 Y orientation angle, node 3, rad
        210    9.643E-02,  8.934E-01,  4.388E-01         F               0         Blade 1 Z orientation angle, node 3, rad
        211    9.952E-01, -7.953E-02, -5.680E-02         F               0         Blade 1 X orientation angle, node 4, rad
        212   -1.585E-02,  4.422E-01, -8.968E-01         F               0         Blade 1 Y orientation angle, node 4, rad
        213    9.643E-02,  8.934E-01,  4.388E-01         F               0         Blade 1 Z orientation angle, node 4, rad
        214    9.941E-01, -6.482E-02, -8.650E-02         F               0         Blade 1 X orientation angle, node 5, rad
        215   -4.884E-02,  4.445E-01, -8.944E-01         F               0         Blade 1 Y orientation angle, node 5, rad
        216    9.643E-02,  8.934E-01,  4.388E-01         F               0         Blade 1 Z orientation angle, node 5, rad
        217    9.925E-01, -5.301E-02, -1.102E-01         F               0         Blade 1 X orientation angle, node 6, rad
        218   -7.519E-02,  4.461E-01, -8.918E-01         F               0         Blade 1 Y orientation angle, node 6, rad
        219    9.643E-02,  8.934E-01,  4.388E-01         F               0         Blade 1 Z orientation angle, node 6, rad
        220    9.906E-01, -4.326E-02, -1.296E-01         F               0         Blade 1 X orientation angle, node 7, rad
        221   -9.682E-02,  4.472E-01, -8.892E-01         F               0         Blade 1 Y orientation angle, node 7, rad
        222    9.643E-02,  8.934E-01,  4.388E-01         F               0         Blade 1 Z orientation angle, node 7, rad
        223    9.887E-01, -3.514E-02, -1.457E-01         F               0         Blade 1 X orientation angle, node 8, rad
        224   -1.148E-01,  4.479E-01, -8.867E-01         F               0         Blade 1 Y orientation angle, node 8, rad
        225    9.643E-02,  8.934E-01,  4.388E-01         F               0         Blade 1 Z orientation angle, node 8, rad
        226    9.868E-01, -2.826E-02, -1.593E-01         F               0         Blade 1 X orientation angle, node 9, rad
        227   -1.300E-01,  4.484E-01, -8.844E-01         F               0         Blade 1 Y orientation angle, node 9, rad