
Linearized model: Predictions were generated on 12-Feb-2024 at 18:31:58 using OpenFAST, compiled as a 64-bit application using single precision at commit v3.5.1
 linked with  NWTC Subroutine Library; ElastoDyn; InflowWind; AeroDyn; ServoDyn; HydroDyn; MAP++ (<1.20.10>, <Oct-20-2023>)

Description from the FAST input file: CCT-9 Campign 4 model. Input files to be run with OpenFAST 3.5.0. GitHub branch from Lu Wang (https://github.com/luwang00/openfast/tree/dev) compiled on March 7, 2023.

Simulation information:
   Simulation time:                  1004.4750 s
   Rotor Speed:                         1.0469 rad/s
   Azimuth:                             4.3495 rad
   Wind Speed:                         12.0000 m/s
   Number of continuous states:        14
   Number of discrete states:           0
   Number of constraint states:         0
   Number of inputs:                 3988
   Number of outputs:                  42
   Jacobians included in this file?    No

Order of continuous states:
   Row/Column Operating Point                     Rotating Frame? Derivative Order Description
   ---------- ---------------                     --------------- ---------------- -----------
          1    1.242E+01                                 F               2         ED Platform horizontal surge translation DOF (internal DOF index = DOF_Sg), m
          2   -2.300E-01                                 F               2         ED Platform horizontal sway translation DOF (internal DOF index = DOF_Sw), m
          3   -2.457E-01                                 F               2         ED Platform vertical heave translation DOF (internal DOF index = DOF_Hv), m
          4    4.663E-02                                 F               2         ED Platform roll tilt rotation DOF (internal DOF index = DOF_R), rad
          5    1.524E-01                                 F               2         ED Platform pitch tilt rotation DOF (internal DOF index = DOF_P), rad
          6    1.154E-02                                 F               2         ED Platform yaw rotation DOF (internal DOF index = DOF_Y), rad
          7    2.779E+00                                 F               2         ED Variable speed generator DOF (internal DOF index = DOF_GeAz), rad
          8    1.226E-04                                 F               2         ED First time derivative of Platform horizontal surge translation DOF (internal DOF index = DOF_Sg), m/s
          9   -2.203E-04                                 F               2         ED First time derivative of Platform horizontal sway translation DOF (internal DOF index = DOF_Sw), m/s
         10    3.243E-03                                 F               2         ED First time derivative of Platform vertical heave translation DOF (internal DOF index = DOF_Hv), m/s
         11   -1.434E-04                                 F               2         ED First time derivative of Platform roll tilt rotation DOF (internal DOF index = DOF_R), rad/s
         12   -3.647E-05                                 F               2         ED First time derivative of Platform pitch tilt rotation DOF (internal DOF index = DOF_P), rad/s
         13    1.561E-04                                 F               2         ED First time derivative of Platform yaw rotation DOF (internal DOF index = DOF_Y), rad/s
         14    1.047E+00                                 F               2         ED First time derivative of Variable speed generator DOF (internal DOF index = DOF_GeAz), rad/s

Order of continuous state derivatives:
   Row/Column Operating Point                     Rotating Frame? Derivative Order Description
   ---------- ---------------                     --------------- ---------------- -----------
          1    1.226E-04                                 F               2         First time derivative of ED Platform horizontal surge translation DOF (internal DOF index = DOF_Sg), m/s
          2   -2.203E-04                                 F               2         First time derivative of ED Platform horizontal sway translation DOF (internal DOF index = DOF_Sw), m/s
          3    3.243E-03                                 F               2         First time derivative of ED Platform vertical heave translation DOF (internal DOF index = DOF_Hv), m/s
          4   -1.434E-04                                 F               2         First time derivative of ED Platform roll tilt rotation DOF (internal DOF index = DOF_R), rad/s
          5   -3.647E-05                                 F               2         First time derivative of ED Platform pitch tilt rotation DOF (internal DOF index = DOF_P), rad/s
          6    1.561E-04                                 F               2         First time derivative of ED Platform yaw rotation DOF (internal DOF index = DOF_Y), rad/s
          7    1.047E+00                                 F               2         First time derivative of ED Variable speed generator DOF (internal DOF index = DOF_GeAz), rad/s
          8   -2.793E-05                                 F               2         First time derivative of ED First time derivative of Platform horizontal surge translation DOF (internal DOF index = DOF_Sg), m/s/s
          9    2.020E-04                                 F               2         First time derivative of ED First time derivative of Platform horizontal sway translation DOF (internal DOF index = DOF_Sw), m/s/s
         10    8.661E-04                                 F               2         First time derivative of ED First time derivative of Platform vertical heave translation DOF (internal DOF index = DOF_Hv), m/s/s
         11   -1.708E-04                                 F               2         First time derivative of ED First time derivative of Platform roll tilt rotation DOF (internal DOF index = DOF_R), rad/s/s
         12   -4.256E-06                                 F               2         First time derivative of ED First time derivative of Platform pitch tilt rotation DOF (internal DOF index = DOF_P), rad/s/s
         13    4.664E-05                                 F               2         First time derivative of ED First time derivative of Platform yaw rotation DOF (internal DOF index = DOF_Y), rad/s/s
         14    1.654E-04                                 F               2         First time derivative of ED First time derivative of Variable speed generator DOF (internal DOF index = DOF_GeAz), rad/s/s

Order of inputs:
     Column   Operating Point                     Rotating Frame? Derivative Order Description
   ---------- ---------------                     --------------- ---------------- -----------
          1   -1.080E+01                                 F               0         IfW X-component position of node 1 (hub), m
          2    0.000E+00                                 F               0         IfW Y-component position of node 1 (hub), m
          3    1.497E+02                                 F               0         IfW Z-component position of node 1 (hub), m
          4    2.377E+01                                 F               0         IfW X-component position of node 2 (blade 1, node 1), m
          5   -1.898E+00                                 F               0         IfW Y-component position of node 2 (blade 1, node 1), m
          6    1.476E+02                                 F               0         IfW Z-component position of node 2 (blade 1, node 1), m
          7    2.364E+01                                 F               0         IfW X-component position of node 3 (blade 1, node 2), m
          8   -6.309E-01                                 F               0         IfW Y-component position of node 3 (blade 1, node 2), m
          9    1.472E+02                                 F               0         IfW Z-component position of node 3 (blade 1, node 2), m
         10    2.187E+01                                 F               0         IfW X-component position of node 4 (blade 1, node 3), m
         11    1.660E+01                                 F               0         IfW Y-component position of node 4 (blade 1, node 3), m
         12    1.418E+02                                 F               0         IfW Z-component position of node 4 (blade 1, node 3), m
         13    2.150E+01                                 F               0         IfW X-component position of node 5 (blade 1, node 4), m
         14    2.027E+01                                 F               0         IfW Y-component position of node 5 (blade 1, node 4), m
         15    1.406E+02                                 F               0         IfW Z-component position of node 5 (blade 1, node 4), m
         16    2.112E+01                                 F               0         IfW X-component position of node 6 (blade 1, node 5), m
         17    2.394E+01                                 F               0         IfW Y-component position of node 6 (blade 1, node 5), m
         18    1.394E+02                                 F               0         IfW Z-component position of node 6 (blade 1, node 5), m
         19    2.074E+01                                 F               0         IfW X-component position of node 7 (blade 1, node 6), m
         20    2.761E+01                                 F               0         IfW Y-component position of node 7 (blade 1, node 6), m
         21    1.383E+02                                 F               0         IfW Z-component position of node 7 (blade 1, node 6), m
         22    2.037E+01                                 F               0         IfW X-component position of node 8 (blade 1, node 7), m
         23    3.128E+01                                 F               0         IfW Y-component position of node 8 (blade 1, node 7), m
         24    1.371E+02                                 F               0         IfW Z-component position of node 8 (blade 1, node 7), m
         25    1.999E+01                                 F               0         IfW X-component position of node 9 (blade 1, node 8), m
         26    3.496E+01                                 F               0         IfW Y-component position of node 9 (blade 1, node 8), m
         27    1.360E+02                                 F               0         IfW Z-component position of node 9 (blade 1, node 8), m
         28    1.962E+01                                 F               0         IfW X-component position of node 10 (blade 1, node 9), m
         29    3.863E+01                                 F               0         IfW Y-component position of node 10 (blade 1, node 9), m
         30    1.348E+02                                 F               0         IfW Z-component position of node 10 (blade 1, node 9), m
         31    1.924E+01                                 F               0         IfW X-component position of node 11 (blade 1, node 10), m
         32    4.230E+01                                 F               0         IfW Y-component position of node 11 (blade 1, node 10), m
         33    1.337E+02                                 F               0         IfW Z-component position of node 11 (blade 1, node 10), m
         34    1.886E+01                                 F               0         IfW X-component position of node 12 (blade 1, node 11), m
         35    4.597E+01                                 F               0         IfW Y-component position of node 12 (blade 1, node 11), m
         36    1.325E+02                                 F               0         IfW Z-component position of node 12 (blade 1, node 11), m
         37    1.849E+01                                 F               0         IfW X-component position of node 13 (blade 1, node 12), m
         38    4.964E+01                                 F               0         IfW Y-component position of node 13 (blade 1, node 12), m
         39    1.313E+02                                 F               0         IfW Z-component position of node 13 (blade 1, node 12), m
         40    1.811E+01                                 F               0         IfW X-component position of node 14 (blade 1, node 13), m
         41    5.331E+01                                 F               0         IfW Y-component position of node 14 (blade 1, node 13), m
         42    1.302E+02                                 F               0         IfW Z-component position of node 14 (blade 1, node 13), m
         43    1.773E+01                                 F               0         IfW X-component position of node 15 (blade 1, node 14), m
         44    5.698E+01                                 F               0         IfW Y-component position of node 15 (blade 1, node 14), m
         45    1.290E+02                                 F               0         IfW Z-component position of node 15 (blade 1, node 14), m
         46    1.736E+01                                 F               0         IfW X-component position of node 16 (blade 1, node 15), m
         47    6.066E+01                                 F               0         IfW Y-component position of node 16 (blade 1, node 15), m
         48    1.279E+02                                 F               0         IfW Z-component position of node 16 (blade 1, node 15), m
         49    1.698E+01                                 F               0         IfW X-component position of node 17 (blade 1, node 16), m
         50    6.433E+01                                 F               0         IfW Y-component position of node 17 (blade 1, node 16), m
         51    1.267E+02                                 F               0         IfW Z-component position of node 17 (blade 1, node 16), m
         52    1.661E+01                                 F               0         IfW X-component position of node 18 (blade 1, node 17), m
         53    6.800E+01                                 F               0         IfW Y-component position of node 18 (blade 1, node 17), m
         54    1.256E+02                                 F               0         IfW Z-component position of node 18 (blade 1, node 17), m
         55    1.623E+01                                 F               0         IfW X-component position of node 19 (blade 1, node 18), m
         56    7.167E+01                                 F               0         IfW Y-component position of node 19 (blade 1, node 18), m
         57    1.244E+02                                 F               0         IfW Z-component position of node 19 (blade 1, node 18), m
         58    1.585E+01                                 F               0         IfW X-component position of node 20 (blade 1, node 19), m
         59    7.534E+01                                 F               0         IfW Y-component position of node 20 (blade 1, node 19), m
         60    1.232E+02                                 F               0         IfW Z-component position of node 20 (blade 1, node 19), m
         61    1.548E+01                                 F               0         IfW X-component position of node 21 (blade 1, node 20), m
         62    7.901E+01                                 F               0         IfW Y-component position of node 21 (blade 1, node 20), m
         63    1.221E+02                                 F               0         IfW Z-component position of node 21 (blade 1, node 20), m
         64    1.510E+01                                 F               0         IfW X-component position of node 22 (blade 1, node 21), m
         65    8.268E+01                                 F               0         IfW Y-component position of node 22 (blade 1, node 21), m
         66    1.209E+02                                 F               0         IfW Z-component position of node 22 (blade 1, node 21), m
         67    1.472E+01                                 F               0         IfW X-component position of node 23 (blade 1, node 22), m
         68    8.635E+01                                 F               0         IfW Y-component position of node 23 (blade 1, node 22), m
         69    1.198E+02                                 F               0         IfW Z-component position of node 23 (blade 1, node 22), m
         70    1.435E+01                                 F               0         IfW X-component position of node 24 (blade 1, node 23), m
         71    9.003E+01                                 F               0         IfW Y-component position of node 24 (blade 1, node 23), m
         72    1.186E+02                                 F               0         IfW Z-component position of node 24 (blade 1, node 23), m
         73    1.397E+01                                 F               0         IfW X-component position of node 25 (blade 1, node 24), m
         74    9.370E+01                                 F               0         IfW Y-component position of node 25 (blade 1, node 24), m
         75    1.175E+02                                 F               0         IfW Z-component position of node 25 (blade 1, node 24), m
         76    1.359E+01                                 F               0         IfW X-component position of node 26 (blade 1, node 25), m
         77    9.737E+01                                 F               0         IfW Y-component position of node 26 (blade 1, node 25), m
         78    1.163E+02                                 F               0         IfW Z-component position of node 26 (blade 1, node 25), m
         79    1.322E+01                                 F               0         IfW X-component position of node 27 (blade 1, node 26), m
         80    1.010E+02                                 F               0         IfW Y-component position of node 27 (blade 1, node 26), m
         81    1.151E+02                                 F               0         IfW Z-component position of node 27 (blade 1, node 26), m
         82    1.284E+01                                 F               0         IfW X-component position of node 28 (blade 1, node 27), m
         83    1.047E+02                                 F               0         IfW Y-component position of node 28 (blade 1, node 27), m
         84    1.140E+02                                 F               0         IfW Z-component position of node 28 (blade 1, node 27), m
         85    1.252E+01                                 F               0         IfW X-component position of node 29 (blade 1, node 28), m
         86    1.078E+02                                 F               0         IfW Y-component position of node 29 (blade 1, node 28), m
         87    1.130E+02                                 F               0         IfW Z-component position of node 29 (blade 1, node 28), m
         88    2.570E+01                                 F               0         IfW X-component position of node 30 (blade 2, node 1), m
         89   -8.279E+00                                 F               0         IfW Y-component position of node 30 (blade 2, node 1), m
         90    1.545E+02                                 F               0         IfW Z-component position of node 30 (blade 2, node 1), m
         91    2.604E+01                                 F               0         IfW X-component position of node 31 (blade 2, node 2), m
         92   -8.550E+00                                 F               0         IfW Y-component position of node 31 (blade 2, node 2), m
         93    1.558E+02                                 F               0         IfW Z-component position of node 31 (blade 2, node 2), m
         94    3.060E+01                                 F               0         IfW X-component position of node 32 (blade 2, node 3), m
         95   -1.223E+01                                 F               0         IfW Y-component position of node 32 (blade 2, node 3), m
         96    1.729E+02                                 F               0         IfW Z-component position of node 32 (blade 2, node 3), m
         97    3.157E+01                                 F               0         IfW X-component position of node 33 (blade 2, node 4), m
         98   -1.301E+01                                 F               0         IfW Y-component position of node 33 (blade 2, node 4), m
         99    1.766E+02                                 F               0         IfW Z-component position of node 33 (blade 2, node 4), m
        100    3.254E+01                                 F               0         IfW X-component position of node 34 (blade 2, node 5), m
        101   -1.380E+01                                 F               0         IfW Y-component position of node 34 (blade 2, node 5), m
        102    1.803E+02                                 F               0         IfW Z-component position of node 34 (blade 2, node 5), m
        103    3.351E+01                                 F               0         IfW X-component position of node 35 (blade 2, node 6), m
        104   -1.458E+01                                 F               0         IfW Y-component position of node 35 (blade 2, node 6), m
        105    1.839E+02                                 F               0         IfW Z-component position of node 35 (blade 2, node 6), m
        106    3.448E+01                                 F               0         IfW X-component position of node 36 (blade 2, node 7), m
        107   -1.536E+01                                 F               0         IfW Y-component position of node 36 (blade 2, node 7), m
        108    1.876E+02                                 F               0         IfW Z-component position of node 36 (blade 2, node 7), m
        109    3.545E+01                                 F               0         IfW X-component position of node 37 (blade 2, node 8), m
        110   -1.615E+01                                 F               0         IfW Y-component position of node 37 (blade 2, node 8), m
        111    1.912E+02                                 F               0         IfW Z-component position of node 37 (blade 2, node 8), m
        112    3.643E+01                                 F               0         IfW X-component position of node 38 (blade 2, node 9), m
        113   -1.693E+01                                 F               0         IfW Y-component position of node 38 (blade 2, node 9), m
        114    1.949E+02                                 F               0         IfW Z-component position of node 38 (blade 2, node 9), m
        115    3.740E+01                                 F               0         IfW X-component position of node 39 (blade 2, node 10), m
        116   -1.771E+01                                 F               0         IfW Y-component position of node 39 (blade 2, node 10), m
        117    1.986E+02                                 F               0         IfW Z-component position of node 39 (blade 2, node 10), m
        118    3.837E+01                                 F               0         IfW X-component position of node 40 (blade 2, node 11), m
        119   -1.850E+01                                 F               0         IfW Y-component position of node 40 (blade 2, node 11), m
        120    2.022E+02                                 F               0         IfW Z-component position of node 40 (blade 2, node 11), m
        121    3.934E+01                                 F               0         IfW X-component position of node 41 (blade 2, node 12), m
        122   -1.928E+01                                 F               0         IfW Y-component position of node 41 (blade 2, node 12), m
        123    2.059E+02                                 F               0         IfW Z-component position of node 41 (blade 2, node 12), m
        124    4.031E+01                                 F               0         IfW X-component position of node 42 (blade 2, node 13), m
        125   -2.007E+01                                 F               0         IfW Y-component position of node 42 (blade 2, node 13), m
        126    2.095E+02                                 F               0         IfW Z-component position of node 42 (blade 2, node 13), m
        127    4.128E+01                                 F               0         IfW X-component position of node 43 (blade 2, node 14), m
        128   -2.085E+01                                 F               0         IfW Y-component position of node 43 (blade 2, node 14), m
        129    2.132E+02                                 F               0         IfW Z-component position of node 43 (blade 2, node 14), m
        130    4.226E+01                                 F               0         IfW X-component position of node 44 (blade 2, node 15), m
        131   -2.163E+01                                 F               0         IfW Y-component position of node 44 (blade 2, node 15), m
        132    2.169E+02                                 F               0         IfW Z-component position of node 44 (blade 2, node 15), m
        133    4.323E+01                                 F               0         IfW X-component position of node 45 (blade 2, node 16), m
        134   -2.242E+01                                 F               0         IfW Y-component position of node 45 (blade 2, node 16), m
        135    2.205E+02                                 F               0         IfW Z-component position of node 45 (blade 2, node 16), m
        136    4.420E+01                                 F               0         IfW X-component position of node 46 (blade 2, node 17), m
        137   -2.320E+01                                 F               0         IfW Y-component position of node 46 (blade 2, node 17), m
        138    2.242E+02                                 F               0         IfW Z-component position of node 46 (blade 2, node 17), m
        139    4.517E+01                                 F               0         IfW X-component position of node 47 (blade 2, node 18), m
        140   -2.398E+01                                 F               0         IfW Y-component position of node 47 (blade 2, node 18), m
        141    2.278E+02                                 F               0         IfW Z-component position of node 47 (blade 2, node 18), m
        142    4.614E+01                                 F               0         IfW X-component position of node 48 (blade 2, node 19), m
        143   -2.477E+01                                 F               0         IfW Y-component position of node 48 (blade 2, node 19), m
        144    2.315E+02                                 F               0         IfW Z-component position of node 48 (blade 2, node 19), m
        145    4.711E+01                                 F               0         IfW X-component position of node 49 (blade 2, node 20), m
        146   -2.555E+01                                 F               0         IfW Y-component position of node 49 (blade 2, node 20), m
        147    2.352E+02                                 F               0         IfW Z-component position of node 49 (blade 2, node 20), m
        148    4.809E+01                                 F               0         IfW X-component position of node 50 (blade 2, node 21), m
        149   -2.634E+01                                 F               0         IfW Y-component position of node 50 (blade 2, node 21), m
        150    2.388E+02                                 F               0         IfW Z-component position of node 50 (blade 2, node 21), m
        151    4.906E+01                                 F               0         IfW X-component position of node 51 (blade 2, node 22), m
        152   -2.712E+01                                 F               0         IfW Y-component position of node 51 (blade 2, node 22), m
        153    2.425E+02                                 F               0         IfW Z-component position of node 51 (blade 2, node 22), m
        154    5.003E+01                                 F               0         IfW X-component position of node 52 (blade 2, node 23), m
        155   -2.790E+01                                 F               0         IfW Y-component position of node 52 (blade 2, node 23), m
        156    2.462E+02                                 F               0         IfW Z-component position of node 52 (blade 2, node 23), m
        157    5.100E+01                                 F               0         IfW X-component position of node 53 (blade 2, node 24), m
        158   -2.869E+01                                 F               0         IfW Y-component position of node 53 (blade 2, node 24), m
        159    2.498E+02                                 F               0         IfW Z-component position of node 53 (blade 2, node 24), m
        160    5.197E+01                                 F               0         IfW X-component position of node 54 (blade 2, node 25), m
        161   -2.947E+01                                 F               0         IfW Y-component position of node 54 (blade 2, node 25), m
        162    2.535E+02                                 F               0         IfW Z-component position of node 54 (blade 2, node 25), m
        163    5.294E+01                                 F               0         IfW X-component position of node 55 (blade 2, node 26), m
        164   -3.026E+01                                 F               0         IfW Y-component position of node 55 (blade 2, node 26), m
        165    2.571E+02                                 F               0         IfW Z-component position of node 55 (blade 2, node 26), m