
Linearized model: Predictions were generated on 12-Feb-2024 at 18:31:58 using OpenFAST, compiled as a 64-bit application using single precision at commit v3.5.1
 linked with  NWTC Subroutine Library; ElastoDyn; InflowWind; AeroDyn; ServoDyn; HydroDyn; MAP++ (<1.20.10>, <Oct-20-2023>)

Description from the FAST input file: CCT-9 Campign 4 model. Input files to be run with OpenFAST 3.5.0. GitHub branch from Lu Wang (https://github.com/luwang00/openfast/tree/dev) compiled on March 7, 2023.

Simulation information:
   Simulation time:                  1006.4750 s
   Rotor Speed:                         1.0471 rad/s
   Azimuth:                             0.1603 rad
   Wind Speed:                         12.0000 m/s
   Number of continuous states:         0
   Number of discrete states:           0
   Number of constraint states:         0
   Number of inputs:                   37
   Number of outputs:                   7
   Jacobians included in this file?    No

Order of inputs:
     Column   Operating Point                     Rotating Frame? Derivative Order Description
   ---------- ---------------                     --------------- ---------------- -----------
          1    1.242E+01                                 F               0         WAMIT X translation displacement, node 1, m
          2   -2.294E-01                                 F               0         WAMIT Y translation displacement, node 1, m
          3   -2.378E-01                                 F               0         WAMIT Z translation displacement, node 1, m
          4    9.886E-01,  1.521E-02, -1.501E-01         F               0         WAMIT X orientation angle, node 1, rad
          5   -8.345E-03,  9.989E-01,  4.629E-02         F               0         WAMIT Y orientation angle, node 1, rad
          6    1.507E-01, -4.451E-02,  9.876E-01         F               0         WAMIT Z orientation angle, node 1, rad
          7    2.718E-04                                 F               0         WAMIT X translation velocity, node 1, m/s
          8    9.957E-04                                 F               0         WAMIT Y translation velocity, node 1, m/s
          9    4.639E-03                                 F               0         WAMIT Z translation velocity, node 1, m/s
         10   -5.147E-04                                 F               0         WAMIT X rotation velocity, node 1, rad/s
         11   -3.035E-05                                 F               0         WAMIT Y rotation velocity, node 1, rad/s
         12    2.232E-04                                 F               0         WAMIT Z rotation velocity, node 1, rad/s
         13    1.812E-04                                 F               0         WAMIT X translation acceleration, node 1, m/s^2
         14    5.967E-04                                 F               0         WAMIT Y translation acceleration, node 1, m/s^2
         15    5.682E-04                                 F               0         WAMIT Z translation acceleration, node 1, m/s^2
         16   -1.686E-04                                 F               0         WAMIT X rotation acceleration, node 1, rad/s^2
         17    9.886E-06                                 F               0         WAMIT Y rotation acceleration, node 1, rad/s^2
         18    2.932E-05                                 F               0         WAMIT Z rotation acceleration, node 1, rad/s^2
         19    1.242E+01                                 F               0         Platform-RefPt X translation displacement, node 1, m
         20   -2.294E-01                                 F               0         Platform-RefPt Y translation displacement, node 1, m
         21   -2.378E-01                                 F               0         Platform-RefPt Z translation displacement, node 1, m
         22    9.886E-01,  1.521E-02, -1.501E-01         F               0         Platform-RefPt X orientation angle, node 1, rad
         23   -8.345E-03,  9.989E-01,  4.629E-02         F               0         Platform-RefPt Y orientation angle, node 1, rad
         24    1.507E-01, -4.451E-02,  9.876E-01         F               0         Platform-RefPt Z orientation angle, node 1, rad
         25    2.718E-04                                 F               0         Platform-RefPt X translation velocity, node 1, m/s
         26    9.957E-04                                 F               0         Platform-RefPt Y translation velocity, node 1, m/s
         27    4.639E-03                                 F               0         Platform-RefPt Z translation velocity, node 1, m/s
         28   -5.147E-04                                 F               0         Platform-RefPt X rotation velocity, node 1, rad/s
         29   -3.035E-05                                 F               0         Platform-RefPt Y rotation velocity, node 1, rad/s
         30    2.232E-04                                 F               0         Platform-RefPt Z rotation velocity, node 1, rad/s
         31    1.812E-04                                 F               0         Platform-RefPt X translation acceleration, node 1, m/s^2
         32    5.967E-04                                 F               0         Platform-RefPt Y translation acceleration, node 1, m/s^2
         33    5.682E-04                                 F               0         Platform-RefPt Z translation acceleration, node 1, m/s^2
         34   -1.686E-04                                 F               0         Platform-RefPt X rotation acceleration, node 1, rad/s^2
         35    9.886E-06                                 F               0         Platform-RefPt Y rotation acceleration, node 1, rad/s^2
         36    2.932E-05                                 F               0         Platform-RefPt Z rotation acceleration, node 1, rad/s^2
         37    0.000E+00                                 F               0         Extended input: wave elevation at platform ref point, m

Order of outputs:
        Row   Operating Point                     Rotating Frame? Derivative Order Description
   ---------- ---------------                     --------------- ---------------- -----------
          1    0.000E+00                                 F               0         Wave1Elev, (m)
          2   -8.595E+04                                 F               0         HydroFxi, (N)
          3    1.081E+04                                 F               0         HydroFyi, (N)
          4    2.044E+08                                 F               0         HydroFzi, (N)
          5   -9.611E+07                                 F               0         HydroMxi, (N-m)
          6   -3.251E+08                                 F               0         HydroMyi, (N-m)
          7   -5.780E+05                                 F               0         HydroMzi, (N-m)


Linearized state matrices:

D: 7 x 37
    0.000E+00  0.000E+00  0.000E+00  0.000E+00  0.000E+00  0.000E+00  0.000E+00  0.000E+00  0.000E+00  0.000E+00  0.000E+00  0.000E+00  0.000E+00  0.000E+00  0.000E+00  0.000E+00  0.000E+00  0.000E+00  0.000E+00  0.000E+00  0.000E+00  0.000E+00  0.000E+00  0.000E+00  0.000E+00  0.000E+00  0.000E+00  0.000E+00  0.000E+00  0.000E+00  0.000E+00  0.000E+00  0.000E+00  0.000E+00  0.000E+00  0.000E+00  0.000E+00
   -6.860E+03  0.000E+00  0.000E+00  0.000E+00  0.000E+00  0.000E+00 -2.822E+05  0.000E+00  0.000E+00  0.000E+00  0.000E+00  0.000E+00 -9.381E+06  0.000E+00  1.995E+01  0.000E+00  9.827E+07  0.000E+00  0.000E+00  0.000E+00  0.000E+00  0.000E+00  0.000E+00  0.000E+00  0.000E+00  0.000E+00  0.000E+00  0.000E+00  0.000E+00  0.000E+00  0.000E+00  0.000E+00  0.000E+00  0.000E+00  0.000E+00  0.000E+00  0.000E+00
    0.000E+00  0.000E+00  0.000E+00  0.000E+00  0.000E+00  0.000E+00  0.000E+00 -2.822E+05  0.000E+00  0.000E+00  0.000E+00  0.000E+00  0.000E+00 -9.381E+06  0.000E+00 -9.827E+07  0.000E+00  1.786E+03  0.000E+00  0.000E+00  0.000E+00  0.000E+00  0.000E+00  0.000E+00  0.000E+00  0.000E+00  0.000E+00  0.000E+00  0.000E+00  0.000E+00  0.000E+00  0.000E+00  0.000E+00  0.000E+00  0.000E+00  0.000E+00  0.000E+00
    0.000E+00  0.000E+00 -4.395E+06  0.000E+00  3.896E+03  0.000E+00  0.000E+00  0.000E+00 -8.075E+05  0.000E+00  0.000E+00  0.000E+00  0.000E+00  0.000E+00 -2.413E+07  0.000E+00  1.765E+04  0.000E+00  0.000E+00  0.000E+00  0.000E+00  0.000E+00  0.000E+00  0.000E+00  0.000E+00  0.000E+00  0.000E+00  0.000E+00  0.000E+00  0.000E+00  0.000E+00  0.000E+00  0.000E+00  0.000E+00  0.000E+00  0.000E+00  0.000E+00
    0.000E+00  2.044E+08 -1.080E+04 -2.134E+09  0.000E+00  8.881E+04  0.000E+00  0.000E+00  0.000E+00 -2.784E+09  0.000E+00  0.000E+00  0.000E+00 -9.820E+07  0.000E+00 -1.132E+10  0.000E+00  5.306E+04  0.000E+00 -2.044E+08  1.080E+04  0.000E+00  0.000E+00  0.000E+00  0.000E+00  0.000E+00  0.000E+00  0.000E+00  0.000E+00  0.000E+00  0.000E+00  0.000E+00  0.000E+00  0.000E+00  0.000E+00  0.000E+00  0.000E+00
   -2.044E+08  0.000E+00 -8.185E+04  0.000E+00 -2.134E+09  0.000E+00  0.000E+00  0.000E+00  0.000E+00  0.000E+00 -2.783E+09  0.000E+00  9.820E+07  0.000E+00  1.938E+04  0.000E+00 -1.132E+10  0.000E+00  2.044E+08  0.000E+00  8.578E+04  0.000E+00  0.000E+00  0.000E+00  0.000E+00  0.000E+00  0.000E+00  0.000E+00  0.000E+00  0.000E+00  0.000E+00  0.000E+00  0.000E+00  0.000E+00  0.000E+00  0.000E+00  0.000E+00
    1.081E+04  8.595E+04  0.000E+00  0.000E+00  0.000E+00  0.000E+00  0.000E+00  0.000E+00  0.000E+00  0.000E+00  0.000E+00 -2.513E+09  0.000E+00  1.554E+03  0.000E+00  4.404E+04  0.000E+00 -1.959E+10 -1.081E+04 -8.595E+04  0.000E+00  0.000E+00  0.000E+00  0.000E+00  0.000E+00  0.000E+00  0.000E+00  0.000E+00  0.000E+00  0.000E+00  0.000E+00  0.000E+00  0.000E+00  0.000E+00  0.000E+00  0.000E+00  0.000E+00
