
Linearized model: Predictions were generated on 30-Jan-2024 at 18:20:32 using OpenFAST, compiled as a 64-bit application using single precision at commit v3.5.1
 linked with  NWTC Subroutine Library; ElastoDyn; InflowWind; AeroDyn; ServoDyn; HydroDyn; MAP++ (<1.20.10>, <Oct-20-2023>)

Description from the FAST input file: CCT-9 Campign 4 model. Input files to be run with OpenFAST 3.5.0. GitHub branch from Lu Wang (https://github.com/luwang00/openfast/tree/dev) compiled on March 7, 2023.

Simulation information:
   Simulation time:                   504.7000 s
   Rotor Speed:                         0.8795 rad/s
   Azimuth:                             3.0103 rad
   Wind Speed:                         10.0000 m/s
   Number of continuous states:         0
   Number of discrete states:           0
   Number of constraint states:         0
   Number of inputs:                 1746
   Number of outputs:                   4
   Jacobians included in this file?    No

Order of inputs:
     Column   Operating Point                     Rotating Frame? Derivative Order Description
   ---------- ---------------                     --------------- ---------------- -----------
          1    1.098E+01                                 F               0         Tower X translation displacement, node 1, m
          2   -1.118E+00                                 F               0         Tower Y translation displacement, node 1, m
          3   -3.021E-01                                 F               0         Tower Z translation displacement, node 1, m
          4    1.239E+01                                 F               0         Tower X translation displacement, node 2, m
          5   -1.632E+00                                 F               0         Tower Y translation displacement, node 2, m
          6   -3.945E-01                                 F               0         Tower Z translation displacement, node 2, m
          7    1.381E+01                                 F               0         Tower X translation displacement, node 3, m
          8   -2.146E+00                                 F               0         Tower Y translation displacement, node 3, m
          9   -4.870E-01                                 F               0         Tower Z translation displacement, node 3, m
         10    1.523E+01                                 F               0         Tower X translation displacement, node 4, m
         11   -2.660E+00                                 F               0         Tower Y translation displacement, node 4, m
         12   -5.794E-01                                 F               0         Tower Z translation displacement, node 4, m
         13    1.665E+01                                 F               0         Tower X translation displacement, node 5, m
         14   -3.174E+00                                 F               0         Tower Y translation displacement, node 5, m
         15   -6.718E-01                                 F               0         Tower Z translation displacement, node 5, m
         16    1.807E+01                                 F               0         Tower X translation displacement, node 6, m
         17   -3.688E+00                                 F               0         Tower Y translation displacement, node 6, m
         18   -7.643E-01                                 F               0         Tower Z translation displacement, node 6, m
         19    1.949E+01                                 F               0         Tower X translation displacement, node 7, m
         20   -4.201E+00                                 F               0         Tower Y translation displacement, node 7, m
         21   -8.567E-01                                 F               0         Tower Z translation displacement, node 7, m
         22    2.090E+01                                 F               0         Tower X translation displacement, node 8, m
         23   -4.715E+00                                 F               0         Tower Y translation displacement, node 8, m
         24   -9.492E-01                                 F               0         Tower Z translation displacement, node 8, m
         25    2.232E+01                                 F               0         Tower X translation displacement, node 9, m
         26   -5.229E+00                                 F               0         Tower Y translation displacement, node 9, m
         27   -1.042E+00                                 F               0         Tower Z translation displacement, node 9, m
         28    2.374E+01                                 F               0         Tower X translation displacement, node 10, m
         29   -5.743E+00                                 F               0         Tower Y translation displacement, node 10, m
         30   -1.134E+00                                 F               0         Tower Z translation displacement, node 10, m
         31    2.516E+01                                 F               0         Tower X translation displacement, node 11, m
         32   -6.257E+00                                 F               0         Tower Y translation displacement, node 11, m
         33   -1.227E+00                                 F               0         Tower Z translation displacement, node 11, m
         34    9.934E-01,  9.830E-03, -1.145E-01         F               0         Tower X orientation angle, node 1, rad
         35   -4.994E-03,  9.991E-01,  4.245E-02         F               0         Tower Y orientation angle, node 1, rad
         36    1.148E-01, -4.160E-02,  9.925E-01         F               0         Tower Z orientation angle, node 1, rad
         37    9.934E-01,  9.830E-03, -1.145E-01         F               0         Tower X orientation angle, node 2, rad
         38   -4.994E-03,  9.991E-01,  4.245E-02         F               0         Tower Y orientation angle, node 2, rad
         39    1.148E-01, -4.160E-02,  9.925E-01         F               0         Tower Z orientation angle, node 2, rad
         40    9.934E-01,  9.830E-03, -1.145E-01         F               0         Tower X orientation angle, node 3, rad
         41   -4.994E-03,  9.991E-01,  4.245E-02         F               0         Tower Y orientation angle, node 3, rad
         42    1.148E-01, -4.160E-02,  9.925E-01         F               0         Tower Z orientation angle, node 3, rad
         43    9.934E-01,  9.830E-03, -1.145E-01         F               0         Tower X orientation angle, node 4, rad
         44   -4.994E-03,  9.991E-01,  4.245E-02         F               0         Tower Y orientation angle, node 4, rad
         45    1.148E-01, -4.160E-02,  9.925E-01         F               0         Tower Z orientation angle, node 4, rad
         46    9.934E-01,  9.830E-03, -1.145E-01         F               0         Tower X orientation angle, node 5, rad
         47   -4.994E-03,  9.991E-01,  4.245E-02         F               0         Tower Y orientation angle, node 5, rad
         48    1.148E-01, -4.160E-02,  9.925E-01         F               0         Tower Z orientation angle, node 5, rad
         49    9.934E-01,  9.830E-03, -1.145E-01         F               0         Tower X orientation angle, node 6, rad
         50   -4.994E-03,  9.991E-01,  4.245E-02         F               0         Tower Y orientation angle, node 6, rad
         51    1.148E-01, -4.160E-02,  9.925E-01         F               0         Tower Z orientation angle, node 6, rad
         52    9.934E-01,  9.830E-03, -1.145E-01         F               0         Tower X orientation angle, node 7, rad
         53   -4.994E-03,  9.991E-01,  4.245E-02         F               0         Tower Y orientation angle, node 7, rad
         54    1.148E-01, -4.160E-02,  9.925E-01         F               0         Tower Z orientation angle, node 7, rad
         55    9.934E-01,  9.830E-03, -1.145E-01         F               0         Tower X orientation angle, node 8, rad
         56   -4.994E-03,  9.991E-01,  4.245E-02         F               0         Tower Y orientation angle, node 8, rad
         57    1.148E-01, -4.160E-02,  9.925E-01         F               0         Tower Z orientation angle, node 8, rad
         58    9.934E-01,  9.830E-03, -1.145E-01         F               0         Tower X orientation angle, node 9, rad
         59   -4.994E-03,  9.991E-01,  4.245E-02         F               0         Tower Y orientation angle, node 9, rad
         60    1.148E-01, -4.160E-02,  9.925E-01         F               0         Tower Z orientation angle, node 9, rad
         61    9.934E-01,  9.830E-03, -1.145E-01         F               0         Tower X orientation angle, node 10, rad
         62   -4.994E-03,  9.991E-01,  4.245E-02         F               0         Tower Y orientation angle, node 10, rad
         63    1.148E-01, -4.160E-02,  9.925E-01         F               0         Tower Z orientation angle, node 10, rad
         64    9.934E-01,  9.830E-03, -1.145E-01         F               0         Tower X orientation angle, node 11, rad
         65   -4.994E-03,  9.991E-01,  4.245E-02         F               0         Tower Y orientation angle, node 11, rad
         66    1.148E-01, -4.160E-02,  9.925E-01         F               0         Tower Z orientation angle, node 11, rad
         67   -3.520E-03                                 F               0         Tower X translation velocity, node 1, m/s
         68   -2.649E-03                                 F               0         Tower Y translation velocity, node 1, m/s
         69    4.091E-03                                 F               0         Tower Z translation velocity, node 1, m/s
         70   -3.196E-03                                 F               0         Tower X translation velocity, node 2, m/s
         71   -4.935E-03                                 F               0         Tower Y translation velocity, node 2, m/s
         72    3.957E-03                                 F               0         Tower Z translation velocity, node 2, m/s
         73   -2.872E-03                                 F               0         Tower X translation velocity, node 3, m/s
         74   -7.220E-03                                 F               0         Tower Y translation velocity, node 3, m/s
         75    3.824E-03                                 F               0         Tower Z translation velocity, node 3, m/s
         76   -2.548E-03                                 F               0         Tower X translation velocity, node 4, m/s
         77   -9.506E-03                                 F               0         Tower Y translation velocity, node 4, m/s
         78    3.691E-03                                 F               0         Tower Z translation velocity, node 4, m/s
         79   -2.224E-03                                 F               0         Tower X translation velocity, node 5, m/s
         80   -1.179E-02                                 F               0         Tower Y translation velocity, node 5, m/s
         81    3.557E-03                                 F               0         Tower Z translation velocity, node 5, m/s
         82   -1.899E-03                                 F               0         Tower X translation velocity, node 6, m/s
         83   -1.408E-02                                 F               0         Tower Y translation velocity, node 6, m/s
         84    3.424E-03                                 F               0         Tower Z translation velocity, node 6, m/s
         85   -1.575E-03                                 F               0         Tower X translation velocity, node 7, m/s
         86   -1.636E-02                                 F               0         Tower Y translation velocity, node 7, m/s
         87    3.291E-03                                 F               0         Tower Z translation velocity, node 7, m/s
         88   -1.251E-03                                 F               0         Tower X translation velocity, node 8, m/s
         89   -1.865E-02                                 F               0         Tower Y translation velocity, node 8, m/s
         90    3.158E-03                                 F               0         Tower Z translation velocity, node 8, m/s
         91   -9.271E-04                                 F               0         Tower X translation velocity, node 9, m/s
         92   -2.093E-02                                 F               0         Tower Y translation velocity, node 9, m/s
         93    3.024E-03                                 F               0         Tower Z translation velocity, node 9, m/s
         94   -6.029E-04                                 F               0         Tower X translation velocity, node 10, m/s
         95   -2.322E-02                                 F               0         Tower Y translation velocity, node 10, m/s
         96    2.891E-03                                 F               0         Tower Z translation velocity, node 10, m/s
         97   -2.788E-04                                 F               0         Tower X translation velocity, node 11, m/s
         98   -2.550E-02                                 F               0         Tower Y translation velocity, node 11, m/s
         99    2.758E-03                                 F               0         Tower Z translation velocity, node 11, m/s
        100    2.613E+01                                 F               0         Hub X translation displacement, node 1, m
        101   -6.690E+00                                 F               0         Hub Y translation displacement, node 1, m
        102   -4.876E-02                                 F               0         Hub Z translation displacement, node 1, m
        103    9.759E-01,  1.412E-02, -2.176E-01         F               0         Hub X orientation angle, node 1, rad
        104    3.349E-02, -9.958E-01,  8.555E-02         F               0         Hub Y orientation angle, node 1, rad
        105   -2.155E-01, -9.077E-02, -9.723E-01         F               0         Hub Z orientation angle, node 1, rad
        106    8.585E-01                                 F               0         Hub X rotation velocity, node 1, rad/s
        107    1.245E-02                                 F               0         Hub Y rotation velocity, node 1, rad/s
        108   -1.914E-01                                 F               0         Hub Z rotation velocity, node 1, rad/s
        109    9.745E-01,  4.366E-02, -2.200E-01         F               0         Blade root 1 X orientation angle, node 1, rad
        110    6.242E-02, -9.949E-01,  7.905E-02         F               0         Blade root 1 Y orientation angle, node 1, rad
        111   -2.155E-01, -9.077E-02, -9.723E-01         F               0         Blade root 1 Z orientation angle, node 1, rad
        112    9.815E-01,  1.680E-03, -1.913E-01         F               0         Blade root 2 X orientation angle, node 1, rad
        113   -1.743E-01,  4.195E-01, -8.909E-01         F               0         Blade root 2 Y orientation angle, node 1, rad
        114    7.874E-02,  9.077E-01,  4.121E-01         F               0         Blade root 2 Z orientation angle, node 1, rad
        115    9.705E-01, -2.984E-03, -2.412E-01         F               0         Blade root 3 X orientation angle, node 1, rad
        116    1.987E-01,  5.767E-01,  7.924E-01         F               0         Blade root 3 Y orientation angle, node 1, rad
        117    1.367E-01, -8.170E-01,  5.602E-01         F               0         Blade root 3 Z orientation angle, node 1, rad
        118    2.436E+01                                 F               0         Blade 1 X translation displacement, node 1, m
        119   -7.193E+00                                 F               0         Blade 1 Y translation displacement, node 1, m
        120   -1.094E+01                                 F               0         Blade 1 Z translation displacement, node 1, m
        121    2.393E+01                                 F               0         Blade 1 X translation displacement, node 2, m
        122   -7.314E+00                                 F               0         Blade 1 Y translation displacement, node 2, m
        123   -1.357E+01                                 F               0         Blade 1 Z translation displacement, node 2, m
        124    1.812E+01                                 F               0         Blade 1 X translation displacement, node 3, m
        125   -8.962E+00                                 F               0         Blade 1 Y translation displacement, node 3, m
        126   -4.927E+01                                 F               0         Blade 1 Z translation displacement, node 3, m
        127    1.689E+01                                 F               0         Blade 1 X translation displacement, node 4, m
        128   -9.313E+00                                 F               0         Blade 1 Y translation displacement, node 4, m
        129   -5.688E+01                                 F               0         Blade 1 Z translation displacement, node 4, m
        130    1.565E+01                                 F               0         Blade 1 X translation displacement, node 5, m
        131   -9.664E+00                                 F               0         Blade 1 Y translation displacement, node 5, m
        132   -6.449E+01                                 F               0         Blade 1 Z translation displacement, node 5, m
        133    1.441E+01                                 F               0         Blade 1 X translation displacement, node 6, m
        134   -1.002E+01                                 F               0         Blade 1 Y translation displacement, node 6, m
        135   -7.209E+01                                 F               0         Blade 1 Z translation displacement, node 6, m
        136    1.317E+01                                 F               0         Blade 1 X translation displacement, node 7, m
        137   -1.037E+01                                 F               0         Blade 1 Y translation displacement, node 7, m
        138   -7.970E+01                                 F               0         Blade 1 Z translation displacement, node 7, m
        139    1.193E+01                                 F               0         Blade 1 X translation displacement, node 8, m
        140   -1.072E+01                                 F               0         Blade 1 Y translation displacement, node 8, m
        141   -8.731E+01                                 F               0         Blade 1 Z translation displacement, node 8, m
        142    1.070E+01                                 F               0         Blade 1 X translation displacement, node 9, m
        143   -1.107E+01                                 F               0         Blade 1 Y translation displacement, node 9, m
        144   -9.491E+01                                 F               0         Blade 1 Z translation displacement, node 9, m
        145    9.460E+00                                 F               0         Blade 1 X translation displacement, node 10, m
        146   -1.142E+01                                 F               0         Blade 1 Y translation displacement, node 10, m
        147   -1.025E+02                                 F               0         Blade 1 Z translation displacement, node 10, m
        148    8.222E+00                                 F               0         Blade 1 X translation displacement, node 11, m
        149   -1.177E+01                                 F               0         Blade 1 Y translation displacement, node 11, m
        150   -1.101E+02                                 F               0         Blade 1 Z translation displacement, node 11, m
        151    6.984E+00                                 F               0         Blade 1 X translation displacement, node 12, m
        152   -1.212E+01                                 F               0         Blade 1 Y translation displacement, node 12, m
        153   -1.177E+02                                 F               0         Blade 1 Z translation displacement, node 12, m
        154    5.746E+00                                 F               0         Blade 1 X translation displacement, node 13, m
        155   -1.247E+01                                 F               0         Blade 1 Y translation displacement, node 13, m
        156   -1.253E+02                                 F               0         Blade 1 Z translation displacement, node 13, m
        157    4.509E+00                                 F               0         Blade 1 X translation displacement, node 14, m
        158   -1.282E+01                                 F               0         Blade 1 Y translation displacement, node 14, m
        159   -1.329E+02                                 F               0         Blade 1 Z translation displacement, node 14, m
        160    3.271E+00                                 F               0         Blade 1 X translation displacement, node 15, m
        161   -1.317E+01                                 F               0         Blade 1 Y translation displacement, node 15, m
        162   -1.406E+02                                 F               0         Blade 1 Z translation displacement, node 15, m
        163    2.033E+00                                 F               0         Blade 1 X translation displacement, node 16, m
        164   -1.353E+01                                 F               0         Blade 1 Y translation displacement, node 16, m
        165   -1.482E+02                                 F               0         Blade 1 Z translation displacement, node 16, m
        166    7.957E-01                                 F               0         Blade 1 X translation displacement, node 17, m
        167   -1.388E+01                                 F               0         Blade 1 Y translation displacement, node 17, m
        168   -1.558E+02                                 F               0         Blade 1 Z translation displacement, node 17, m
        169   -4.419E-01                                 F               0         Blade 1 X translation displacement, node 18, m
        170   -1.423E+01                                 F               0         Blade 1 Y translation displacement, node 18, m
        171   -1.634E+02                                 F               0         Blade 1 Z translation displacement, node 18, m
        172   -1.680E+00                                 F               0         Blade 1 X translation displacement, node 19, m
        173   -1.458E+01                                 F               0         Blade 1 Y translation displacement, node 19, m
        174   -1.710E+02                                 F               0         Blade 1 Z translation displacement, node 19, m
        175   -2.917E+00                                 F               0         Blade 1 X translation displacement, node 20, m
        176   -1.493E+01                                 F               0         Blade 1 Y translation displacement, node 20, m
        177   -1.786E+02                                 F               0         Blade 1 Z translation displacement, node 20, m
        178   -4.155E+00                                 F               0         Blade 1 X translation displacement, node 21, m
        179   -1.528E+01                                 F               0         Blade 1 Y translation displacement, node 21, m
        180   -1.862E+02                                 F               0         Blade 1 Z translation displacement, node 21, m
        181   -5.393E+00                                 F               0         Blade 1 X translation displacement, node 22, m
        182   -1.563E+01                                 F               0         Blade 1 Y translation displacement, node 22, m
        183   -1.938E+02                                 F               0         Blade 1 Z translation displacement, node 22, m
        184   -6.630E+00                                 F               0         Blade 1 X translation displacement, node 23, m
        185   -1.598E+01                                 F               0         Blade 1 Y translation displacement, node 23, m
        186   -2.014E+02                                 F               0         Blade 1 Z translation displacement, node 23, m
        187   -7.868E+00                                 F               0         Blade 1 X translation displacement, node 24, m
        188   -1.633E+01                                 F               0         Blade 1 Y translation displacement, node 24, m
        189   -2.090E+02                                 F               0         Blade 1 Z translation displacement, node 24, m
        190   -9.106E+00                                 F               0         Blade 1 X translation displacement, node 25, m
        191   -1.669E+01                                 F               0         Blade 1 Y translation displacement, node 25, m
        192   -2.166E+02                                 F               0         Blade 1 Z translation displacement, node 25, m
        193   -1.034E+01                                 F               0         Blade 1 X translation displacement, node 26, m
        194   -1.704E+01                                 F               0         Blade 1 Y translation displacement, node 26, m
        195   -2.242E+02                                 F               0         Blade 1 Z translation displacement, node 26, m
        196   -1.158E+01                                 F               0         Blade 1 X translation displacement, node 27, m
        197   -1.739E+01                                 F               0         Blade 1 Y translation displacement, node 27, m
        198   -2.318E+02                                 F               0         Blade 1 Z translation displacement, node 27, m
        199   -1.263E+01                                 F               0         Blade 1 X translation displacement, node 28, m
        200   -1.769E+01                                 F               0         Blade 1 Y translation displacement, node 28, m
        201   -2.383E+02                                 F               0         Blade 1 Z translation displacement, node 28, m
        202    8.388E-01,  4.925E-01, -2.319E-01         F               0         Blade 1 X orientation angle, node 1, rad
        203    4.999E-01, -8.655E-01, -2.999E-02         F               0         Blade 1 Y orientation angle, node 1, rad
        204   -2.155E-01, -9.077E-02, -9.723E-01         F               0         Blade 1 Z orientation angle, node 1, rad
        205    8.388E-01,  4.925E-01, -2.319E-01         F               0         Blade 1 X orientation angle, node 2, rad
        206    4.999E-01, -8.655E-01, -2.999E-02         F               0         Blade 1 Y orientation angle, node 2, rad
        207   -2.155E-01, -9.077E-02, -9.723E-01         F               0         Blade 1 Z orientation angle, node 2, rad
        208    9.334E-01,  2.734E-01, -2.324E-01         F               0         Blade 1 X orientation angle, node 3, rad
        209    2.869E-01, -9.576E-01,  2.582E-02         F               0         Blade 1 Y orientation angle, node 3, rad
        210   -2.155E-01, -9.077E-02, -9.723E-01         F               0         Blade 1 Z orientation angle, node 3, rad
        211    9.447E-01,  2.327E-01, -2.311E-01         F               0         Blade 1 X orientation angle, node 4, rad
        212    2.472E-01, -9.683E-01,  3.561E-02         F               0         Blade 1 Y orientation angle, node 4, rad
        213   -2.155E-01, -9.077E-02, -9.723E-01         F               0         Blade 1 Z orientation angle, node 4, rad
        214    9.524E-01,  2.005E-01, -2.298E-01         F               0         Blade 1 X orientation angle, node 5, rad
        215    2.158E-01, -9.755E-01,  4.325E-02         F               0         Blade 1 Y orientation angle, node 5, rad
        216   -2.155E-01, -9.077E-02, -9.723E-01         F               0         Blade 1 Z orientation angle, node 5, rad
        217    9.578E-01,  1.745E-01, -2.286E-01         F               0         Blade 1 X orientation angle, node 6, rad
        218    1.904E-01, -9.805E-01,  4.933E-02         F               0         Blade 1 Y orientation angle, node 6, rad
        219   -2.155E-01, -9.077E-02, -9.723E-01         F               0         Blade 1 Z orientation angle, node 6, rad
        220    9.617E-01,  1.531E-01, -2.274E-01         F               0         Blade 1 X orientation angle, node 7, rad
        221    1.695E-01, -9.840E-01,  5.431E-02         F               0         Blade 1 Y orientation angle, node 7, rad
        222   -2.155E-01, -9.077E-02, -9.723E-01         F               0         Blade 1 Z orientation angle, node 7, rad
        223    9.646E-01,  1.352E-01, -2.264E-01         F               0         Blade 1 X orientation angle, node 8, rad
        224    1.520E-01, -9.867E-01,  5.843E-02         F               0         Blade 1 Y orientation angle, node 8, rad
        225   -2.155E-01, -9.077E-02, -9.723E-01         F               0         Blade 1 Z orientation angle, node 8, rad
        226    9.668E-01,  1.200E-01, -2.255E-01         F               0         Blade 1 X orientation angle, node 9, rad
        227    1.372E-01, -9.886E-01,  6.190E-02         F               0         Blade 1 Y orientation angle, node 9, rad