
Linearized model: Predictions were generated on 12-Feb-2024 at 18:31:58 using OpenFAST, compiled as a 64-bit application using single precision at commit v3.5.1
 linked with  NWTC Subroutine Library; ElastoDyn; InflowWind; AeroDyn; ServoDyn; HydroDyn; MAP++ (<1.20.10>, <Oct-20-2023>)

Description from the FAST input file: CCT-9 Campign 4 model. Input files to be run with OpenFAST 3.5.0. GitHub branch from Lu Wang (https://github.com/luwang00/openfast/tree/dev) compiled on March 7, 2023.

Simulation information:
   Simulation time:                  1003.0000 s
   Rotor Speed:                         1.0465 rad/s
   Azimuth:                             2.8056 rad
   Wind Speed:                         12.0000 m/s
   Number of continuous states:         0
   Number of discrete states:           0
   Number of constraint states:         0
   Number of inputs:                 1746
   Number of outputs:                   4
   Jacobians included in this file?    No

Order of inputs:
     Column   Operating Point                     Rotating Frame? Derivative Order Description
   ---------- ---------------                     --------------- ---------------- -----------
          1    1.518E+01                                 F               0         Tower X translation displacement, node 1, m
          2   -1.059E+00                                 F               0         Tower Y translation displacement, node 1, m
          3   -4.780E-01                                 F               0         Tower Z translation displacement, node 1, m
          4    1.704E+01                                 F               0         Tower X translation displacement, node 2, m
          5   -1.618E+00                                 F               0         Tower Y translation displacement, node 2, m
          6   -6.320E-01                                 F               0         Tower Z translation displacement, node 2, m
          7    1.891E+01                                 F               0         Tower X translation displacement, node 3, m
          8   -2.177E+00                                 F               0         Tower Y translation displacement, node 3, m
          9   -7.861E-01                                 F               0         Tower Z translation displacement, node 3, m
         10    2.077E+01                                 F               0         Tower X translation displacement, node 4, m
         11   -2.736E+00                                 F               0         Tower Y translation displacement, node 4, m
         12   -9.401E-01                                 F               0         Tower Z translation displacement, node 4, m
         13    2.263E+01                                 F               0         Tower X translation displacement, node 5, m
         14   -3.295E+00                                 F               0         Tower Y translation displacement, node 5, m
         15   -1.094E+00                                 F               0         Tower Z translation displacement, node 5, m
         16    2.449E+01                                 F               0         Tower X translation displacement, node 6, m
         17   -3.854E+00                                 F               0         Tower Y translation displacement, node 6, m
         18   -1.248E+00                                 F               0         Tower Z translation displacement, node 6, m
         19    2.636E+01                                 F               0         Tower X translation displacement, node 7, m
         20   -4.413E+00                                 F               0         Tower Y translation displacement, node 7, m
         21   -1.402E+00                                 F               0         Tower Z translation displacement, node 7, m
         22    2.822E+01                                 F               0         Tower X translation displacement, node 8, m
         23   -4.972E+00                                 F               0         Tower Y translation displacement, node 8, m
         24   -1.556E+00                                 F               0         Tower Z translation displacement, node 8, m
         25    3.008E+01                                 F               0         Tower X translation displacement, node 9, m
         26   -5.531E+00                                 F               0         Tower Y translation displacement, node 9, m
         27   -1.710E+00                                 F               0         Tower Z translation displacement, node 9, m
         28    3.195E+01                                 F               0         Tower X translation displacement, node 10, m
         29   -6.090E+00                                 F               0         Tower Y translation displacement, node 10, m
         30   -1.864E+00                                 F               0         Tower Z translation displacement, node 10, m
         31    3.381E+01                                 F               0         Tower X translation displacement, node 11, m
         32   -6.648E+00                                 F               0         Tower Y translation displacement, node 11, m
         33   -2.018E+00                                 F               0         Tower Z translation displacement, node 11, m
         34    9.885E-01,  1.471E-02, -1.502E-01         F               0         Tower X orientation angle, node 1, rad
         35   -7.732E-03,  9.989E-01,  4.694E-02         F               0         Tower Y orientation angle, node 1, rad
         36    1.508E-01, -4.524E-02,  9.875E-01         F               0         Tower Z orientation angle, node 1, rad
         37    9.885E-01,  1.471E-02, -1.502E-01         F               0         Tower X orientation angle, node 2, rad
         38   -7.732E-03,  9.989E-01,  4.694E-02         F               0         Tower Y orientation angle, node 2, rad
         39    1.508E-01, -4.524E-02,  9.875E-01         F               0         Tower Z orientation angle, node 2, rad
         40    9.885E-01,  1.471E-02, -1.502E-01         F               0         Tower X orientation angle, node 3, rad
         41   -7.732E-03,  9.989E-01,  4.694E-02         F               0         Tower Y orientation angle, node 3, rad
         42    1.508E-01, -4.524E-02,  9.875E-01         F               0         Tower Z orientation angle, node 3, rad
         43    9.885E-01,  1.471E-02, -1.502E-01         F               0         Tower X orientation angle, node 4, rad
         44   -7.732E-03,  9.989E-01,  4.694E-02         F               0         Tower Y orientation angle, node 4, rad
         45    1.508E-01, -4.524E-02,  9.875E-01         F               0         Tower Z orientation angle, node 4, rad
         46    9.885E-01,  1.471E-02, -1.502E-01         F               0         Tower X orientation angle, node 5, rad
         47   -7.732E-03,  9.989E-01,  4.694E-02         F               0         Tower Y orientation angle, node 5, rad
         48    1.508E-01, -4.524E-02,  9.875E-01         F               0         Tower Z orientation angle, node 5, rad
         49    9.885E-01,  1.471E-02, -1.502E-01         F               0         Tower X orientation angle, node 6, rad
         50   -7.732E-03,  9.989E-01,  4.694E-02         F               0         Tower Y orientation angle, node 6, rad
         51    1.508E-01, -4.524E-02,  9.875E-01         F               0         Tower Z orientation angle, node 6, rad
         52    9.885E-01,  1.471E-02, -1.502E-01         F               0         Tower X orientation angle, node 7, rad
         53   -7.732E-03,  9.989E-01,  4.694E-02         F               0         Tower Y orientation angle, node 7, rad
         54    1.508E-01, -4.524E-02,  9.875E-01         F               0         Tower Z orientation angle, node 7, rad
         55    9.885E-01,  1.471E-02, -1.502E-01         F               0         Tower X orientation angle, node 8, rad
         56   -7.732E-03,  9.989E-01,  4.694E-02         F               0         Tower Y orientation angle, node 8, rad
         57    1.508E-01, -4.524E-02,  9.875E-01         F               0         Tower Z orientation angle, node 8, rad
         58    9.885E-01,  1.471E-02, -1.502E-01         F               0         Tower X orientation angle, node 9, rad
         59   -7.732E-03,  9.989E-01,  4.694E-02         F               0         Tower Y orientation angle, node 9, rad
         60    1.508E-01, -4.524E-02,  9.875E-01         F               0         Tower Z orientation angle, node 9, rad
         61    9.885E-01,  1.471E-02, -1.502E-01         F               0         Tower X orientation angle, node 10, rad
         62   -7.732E-03,  9.989E-01,  4.694E-02         F               0         Tower Y orientation angle, node 10, rad
         63    1.508E-01, -4.524E-02,  9.875E-01         F               0         Tower Z orientation angle, node 10, rad
         64    9.885E-01,  1.471E-02, -1.502E-01         F               0         Tower X orientation angle, node 11, rad
         65   -7.732E-03,  9.989E-01,  4.694E-02         F               0         Tower Y orientation angle, node 11, rad
         66    1.508E-01, -4.524E-02,  9.875E-01         F               0         Tower Z orientation angle, node 11, rad
         67   -4.416E-04                                 F               0         Tower X translation velocity, node 1, m/s
         68   -1.132E-03                                 F               0         Tower Y translation velocity, node 1, m/s
         69    1.579E-03                                 F               0         Tower Z translation velocity, node 1, m/s
         70   -7.978E-04                                 F               0         Tower X translation velocity, node 2, m/s
         71   -1.931E-03                                 F               0         Tower Y translation velocity, node 2, m/s
         72    1.597E-03                                 F               0         Tower Z translation velocity, node 2, m/s
         73   -1.154E-03                                 F               0         Tower X translation velocity, node 3, m/s
         74   -2.729E-03                                 F               0         Tower Y translation velocity, node 3, m/s
         75    1.615E-03                                 F               0         Tower Z translation velocity, node 3, m/s
         76   -1.510E-03                                 F               0         Tower X translation velocity, node 4, m/s
         77   -3.527E-03                                 F               0         Tower Y translation velocity, node 4, m/s
         78    1.633E-03                                 F               0         Tower Z translation velocity, node 4, m/s
         79   -1.866E-03                                 F               0         Tower X translation velocity, node 5, m/s
         80   -4.326E-03                                 F               0         Tower Y translation velocity, node 5, m/s
         81    1.650E-03                                 F               0         Tower Z translation velocity, node 5, m/s
         82   -2.223E-03                                 F               0         Tower X translation velocity, node 6, m/s
         83   -5.124E-03                                 F               0         Tower Y translation velocity, node 6, m/s
         84    1.668E-03                                 F               0         Tower Z translation velocity, node 6, m/s
         85   -2.579E-03                                 F               0         Tower X translation velocity, node 7, m/s
         86   -5.923E-03                                 F               0         Tower Y translation velocity, node 7, m/s
         87    1.686E-03                                 F               0         Tower Z translation velocity, node 7, m/s
         88   -2.935E-03                                 F               0         Tower X translation velocity, node 8, m/s
         89   -6.721E-03                                 F               0         Tower Y translation velocity, node 8, m/s
         90    1.704E-03                                 F               0         Tower Z translation velocity, node 8, m/s
         91   -3.291E-03                                 F               0         Tower X translation velocity, node 9, m/s
         92   -7.519E-03                                 F               0         Tower Y translation velocity, node 9, m/s
         93    1.722E-03                                 F               0         Tower Z translation velocity, node 9, m/s
         94   -3.647E-03                                 F               0         Tower X translation velocity, node 10, m/s
         95   -8.318E-03                                 F               0         Tower Y translation velocity, node 10, m/s
         96    1.739E-03                                 F               0         Tower Z translation velocity, node 10, m/s
         97   -4.004E-03                                 F               0         Tower X translation velocity, node 11, m/s
         98   -9.116E-03                                 F               0         Tower Y translation velocity, node 11, m/s
         99    1.757E-03                                 F               0         Tower Z translation velocity, node 11, m/s
        100    3.512E+01                                 F               0         Hub X translation displacement, node 1, m
        101   -7.163E+00                                 F               0         Hub Y translation displacement, node 1, m
        102   -4.933E-01                                 F               0         Hub Z translation displacement, node 1, m
        103    9.674E-01,  1.936E-02, -2.526E-01         F               0         Hub X orientation angle, node 1, rad
        104    9.081E-02, -9.573E-01,  2.744E-01         F               0         Hub Y orientation angle, node 1, rad
        105   -2.366E-01, -2.884E-01, -9.278E-01         F               0         Hub Z orientation angle, node 1, rad
        106    1.012E+00                                 F               0         Hub X rotation velocity, node 1, rad/s
        107    2.023E-02                                 F               0         Hub Y rotation velocity, node 1, rad/s
        108   -2.643E-01                                 F               0         Hub Z rotation velocity, node 1, rad/s
        109    9.642E-01,  4.775E-02, -2.607E-01         F               0         Blade root 1 X orientation angle, node 1, rad
        110    1.195E-01, -9.563E-01,  2.667E-01         F               0         Blade root 1 Y orientation angle, node 1, rad
        111   -2.366E-01, -2.884E-01, -9.278E-01         F               0         Blade root 1 Z orientation angle, node 1, rad
        112    9.744E-01,  1.256E-02, -2.246E-01         F               0         Blade root 2 X orientation angle, node 1, rad
        113   -2.215E-01,  2.294E-01, -9.478E-01         F               0         Blade root 2 Y orientation angle, node 1, rad
        114    3.963E-02,  9.732E-01,  2.263E-01         F               0         Blade root 2 Z orientation angle, node 1, rad
        115    9.622E-01, -2.257E-03, -2.723E-01         F               0         Blade root 3 X orientation angle, node 1, rad
        116    1.881E-01,  7.286E-01,  6.586E-01         F               0         Blade root 3 Y orientation angle, node 1, rad
        117    1.969E-01, -6.849E-01,  7.015E-01         F               0         Blade root 3 Z orientation angle, node 1, rad
        118    3.323E+01                                 F               0         Blade 1 X translation displacement, node 1, m
        119   -8.760E+00                                 F               0         Blade 1 Y translation displacement, node 1, m
        120   -1.114E+01                                 F               0         Blade 1 Z translation displacement, node 1, m
        121    3.277E+01                                 F               0         Blade 1 X translation displacement, node 2, m
        122   -9.145E+00                                 F               0         Blade 1 Y translation displacement, node 2, m
        123   -1.371E+01                                 F               0         Blade 1 Z translation displacement, node 2, m
        124    2.658E+01                                 F               0         Blade 1 X translation displacement, node 3, m
        125   -1.438E+01                                 F               0         Blade 1 Y translation displacement, node 3, m
        126   -4.860E+01                                 F               0         Blade 1 Z translation displacement, node 3, m
        127    2.526E+01                                 F               0         Blade 1 X translation displacement, node 4, m
        128   -1.549E+01                                 F               0         Blade 1 Y translation displacement, node 4, m
        129   -5.604E+01                                 F               0         Blade 1 Z translation displacement, node 4, m
        130    2.394E+01                                 F               0         Blade 1 X translation displacement, node 5, m
        131   -1.661E+01                                 F               0         Blade 1 Y translation displacement, node 5, m
        132   -6.348E+01                                 F               0         Blade 1 Z translation displacement, node 5, m
        133    2.262E+01                                 F               0         Blade 1 X translation displacement, node 6, m
        134   -1.773E+01                                 F               0         Blade 1 Y translation displacement, node 6, m
        135   -7.091E+01                                 F               0         Blade 1 Z translation displacement, node 6, m
        136    2.130E+01                                 F               0         Blade 1 X translation displacement, node 7, m
        137   -1.884E+01                                 F               0         Blade 1 Y translation displacement, node 7, m
        138   -7.835E+01                                 F               0         Blade 1 Z translation displacement, node 7, m
        139    1.998E+01                                 F               0         Blade 1 X translation displacement, node 8, m
        140   -1.996E+01                                 F               0         Blade 1 Y translation displacement, node 8, m
        141   -8.578E+01                                 F               0         Blade 1 Z translation displacement, node 8, m
        142    1.866E+01                                 F               0         Blade 1 X translation displacement, node 9, m
        143   -2.107E+01                                 F               0         Blade 1 Y translation displacement, node 9, m
        144   -9.322E+01                                 F               0         Blade 1 Z translation displacement, node 9, m
        145    1.734E+01                                 F               0         Blade 1 X translation displacement, node 10, m
        146   -2.219E+01                                 F               0         Blade 1 Y translation displacement, node 10, m
        147   -1.007E+02                                 F               0         Blade 1 Z translation displacement, node 10, m
        148    1.603E+01                                 F               0         Blade 1 X translation displacement, node 11, m
        149   -2.330E+01                                 F               0         Blade 1 Y translation displacement, node 11, m
        150   -1.081E+02                                 F               0         Blade 1 Z translation displacement, node 11, m
        151    1.471E+01                                 F               0         Blade 1 X translation displacement, node 12, m
        152   -2.442E+01                                 F               0         Blade 1 Y translation displacement, node 12, m
        153   -1.155E+02                                 F               0         Blade 1 Z translation displacement, node 12, m
        154    1.339E+01                                 F               0         Blade 1 X translation displacement, node 13, m
        155   -2.553E+01                                 F               0         Blade 1 Y translation displacement, node 13, m
        156   -1.230E+02                                 F               0         Blade 1 Z translation displacement, node 13, m
        157    1.207E+01                                 F               0         Blade 1 X translation displacement, node 14, m
        158   -2.665E+01                                 F               0         Blade 1 Y translation displacement, node 14, m
        159   -1.304E+02                                 F               0         Blade 1 Z translation displacement, node 14, m
        160    1.075E+01                                 F               0         Blade 1 X translation displacement, node 15, m
        161   -2.776E+01                                 F               0         Blade 1 Y translation displacement, node 15, m
        162   -1.378E+02                                 F               0         Blade 1 Z translation displacement, node 15, m
        163    9.429E+00                                 F               0         Blade 1 X translation displacement, node 16, m
        164   -2.888E+01                                 F               0         Blade 1 Y translation displacement, node 16, m
        165   -1.453E+02                                 F               0         Blade 1 Z translation displacement, node 16, m
        166    8.110E+00                                 F               0         Blade 1 X translation displacement, node 17, m
        167   -2.999E+01                                 F               0         Blade 1 Y translation displacement, node 17, m
        168   -1.527E+02                                 F               0         Blade 1 Z translation displacement, node 17, m
        169    6.791E+00                                 F               0         Blade 1 X translation displacement, node 18, m
        170   -3.111E+01                                 F               0         Blade 1 Y translation displacement, node 18, m
        171   -1.601E+02                                 F               0         Blade 1 Z translation displacement, node 18, m
        172    5.472E+00                                 F               0         Blade 1 X translation displacement, node 19, m
        173   -3.222E+01                                 F               0         Blade 1 Y translation displacement, node 19, m
        174   -1.676E+02                                 F               0         Blade 1 Z translation displacement, node 19, m
        175    4.152E+00                                 F               0         Blade 1 X translation displacement, node 20, m
        176   -3.334E+01                                 F               0         Blade 1 Y translation displacement, node 20, m
        177   -1.750E+02                                 F               0         Blade 1 Z translation displacement, node 20, m
        178    2.833E+00                                 F               0         Blade 1 X translation displacement, node 21, m
        179   -3.445E+01                                 F               0         Blade 1 Y translation displacement, node 21, m
        180   -1.824E+02                                 F               0         Blade 1 Z translation displacement, node 21, m
        181    1.514E+00                                 F               0         Blade 1 X translation displacement, node 22, m
        182   -3.557E+01                                 F               0         Blade 1 Y translation displacement, node 22, m
        183   -1.899E+02                                 F               0         Blade 1 Z translation displacement, node 22, m
        184    1.947E-01                                 F               0         Blade 1 X translation displacement, node 23, m
        185   -3.668E+01                                 F               0         Blade 1 Y translation displacement, node 23, m
        186   -1.973E+02                                 F               0         Blade 1 Z translation displacement, node 23, m
        187   -1.124E+00                                 F               0         Blade 1 X translation displacement, node 24, m
        188   -3.780E+01                                 F               0         Blade 1 Y translation displacement, node 24, m
        189   -2.047E+02                                 F               0         Blade 1 Z translation displacement, node 24, m
        190   -2.444E+00                                 F               0         Blade 1 X translation displacement, node 25, m
        191   -3.892E+01                                 F               0         Blade 1 Y translation displacement, node 25, m
        192   -2.122E+02                                 F               0         Blade 1 Z translation displacement, node 25, m
        193   -3.763E+00                                 F               0         Blade 1 X translation displacement, node 26, m
        194   -4.003E+01                                 F               0         Blade 1 Y translation displacement, node 26, m
        195   -2.196E+02                                 F               0         Blade 1 Z translation displacement, node 26, m
        196   -5.082E+00                                 F               0         Blade 1 X translation displacement, node 27, m
        197   -4.115E+01                                 F               0         Blade 1 Y translation displacement, node 27, m
        198   -2.270E+02                                 F               0         Blade 1 Z translation displacement, node 27, m
        199   -6.200E+00                                 F               0         Blade 1 X translation displacement, node 28, m
        200   -4.209E+01                                 F               0         Blade 1 Y translation displacement, node 28, m
        201   -2.334E+02                                 F               0         Blade 1 Z translation displacement, node 28, m
        202    8.037E-01,  4.786E-01, -3.536E-01         F               0         Blade 1 X orientation angle, node 1, rad
        203    5.460E-01, -8.293E-01,  1.185E-01         F               0         Blade 1 Y orientation angle, node 1, rad
        204   -2.366E-01, -2.884E-01, -9.278E-01         F               0         Blade 1 Z orientation angle, node 1, rad
        205    8.037E-01,  4.786E-01, -3.536E-01         F               0         Blade 1 X orientation angle, node 2, rad
        206    5.460E-01, -8.293E-01,  1.185E-01         F               0         Blade 1 Y orientation angle, node 2, rad
        207   -2.366E-01, -2.884E-01, -9.278E-01         F               0         Blade 1 Z orientation angle, node 2, rad
        208    9.102E-01,  2.684E-01, -3.155E-01         F               0         Blade 1 X orientation angle, node 3, rad
        209    3.400E-01, -9.191E-01,  1.990E-01         F               0         Blade 1 Y orientation angle, node 3, rad
        210   -2.366E-01, -2.884E-01, -9.278E-01         F               0         Blade 1 Z orientation angle, node 3, rad
        211    9.237E-01,  2.294E-01, -3.068E-01         F               0         Blade 1 X orientation angle, node 4, rad
        212    3.013E-01, -9.297E-01,  2.121E-01         F               0         Blade 1 Y orientation angle, node 4, rad
        213   -2.366E-01, -2.884E-01, -9.278E-01         F               0         Blade 1 Z orientation angle, node 4, rad
        214    9.332E-01,  1.984E-01, -2.996E-01         F               0         Blade 1 X orientation angle, node 5, rad
        215    2.705E-01, -9.367E-01,  2.222E-01         F               0         Blade 1 Y orientation angle, node 5, rad
        216   -2.366E-01, -2.884E-01, -9.278E-01         F               0         Blade 1 Z orientation angle, node 5, rad
        217    9.401E-01,  1.735E-01, -2.936E-01         F               0         Blade 1 X orientation angle, node 6, rad
        218    2.456E-01, -9.417E-01,  2.300E-01         F               0         Blade 1 Y orientation angle, node 6, rad
        219   -2.366E-01, -2.884E-01, -9.278E-01         F               0         Blade 1 Z orientation angle, node 6, rad
        220    9.452E-01,  1.529E-01, -2.885E-01         F               0         Blade 1 X orientation angle, node 7, rad
        221    2.251E-01, -9.452E-01,  2.364E-01         F               0         Blade 1 Y orientation angle, node 7, rad
        222   -2.366E-01, -2.884E-01, -9.278E-01         F               0         Blade 1 Z orientation angle, node 7, rad
        223    9.491E-01,  1.357E-01, -2.842E-01         F               0         Blade 1 X orientation angle, node 8, rad
        224    2.079E-01, -9.479E-01,  2.416E-01         F               0         Blade 1 Y orientation angle, node 8, rad
        225   -2.366E-01, -2.884E-01, -9.278E-01         F               0         Blade 1 Z orientation angle, node 8, rad
        226    9.522E-01,  1.211E-01, -2.804E-01         F               0         Blade 1 X orientation angle, node 9, rad
        227    1.933E-01, -9.498E-01,  2.459E-01         F               0         Blade 1 Y orientation angle, node 9, rad