
Linearized model: Predictions were generated on 12-Feb-2024 at 18:31:58 using OpenFAST, compiled as a 64-bit application using single precision at commit v3.5.1
 linked with  NWTC Subroutine Library; ElastoDyn; InflowWind; AeroDyn; ServoDyn; HydroDyn; MAP++ (<1.20.10>, <Oct-20-2023>)

Description from the FAST input file: CCT-9 Campign 4 model. Input files to be run with OpenFAST 3.5.0. GitHub branch from Lu Wang (https://github.com/luwang00/openfast/tree/dev) compiled on March 7, 2023.

Simulation information:
   Simulation time:                  1002.5000 s
   Rotor Speed:                         1.0463 rad/s
   Azimuth:                             2.2823 rad
   Wind Speed:                         12.0000 m/s
   Number of continuous states:         0
   Number of discrete states:           0
   Number of constraint states:         0
   Number of inputs:                  303
   Number of outputs:                   1
   Jacobians included in this file?    No

Order of inputs:
     Column   Operating Point                     Rotating Frame? Derivative Order Description
   ---------- ---------------                     --------------- ---------------- -----------
          1   -1.080E+01                                 F               0         X-component position of node 1 (hub), m
          2    0.000E+00                                 F               0         Y-component position of node 1 (hub), m
          3    1.497E+02                                 F               0         Z-component position of node 1 (hub), m
          4    2.343E+01                                 F               0         X-component position of node 2 (blade 1, node 1), m
          5   -1.119E+01                                 F               0         Y-component position of node 2 (blade 1, node 1), m
          6    1.456E+02                                 F               0         Z-component position of node 2 (blade 1, node 1), m
          7    2.322E+01                                 F               0         X-component position of node 3 (blade 1, node 2), m
          8   -1.216E+01                                 F               0         Y-component position of node 3 (blade 1, node 2), m
          9    1.447E+02                                 F               0         Z-component position of node 3 (blade 1, node 2), m
         10    2.032E+01                                 F               0         X-component position of node 4 (blade 1, node 3), m
         11   -2.538E+01                                 F               0         Y-component position of node 4 (blade 1, node 3), m
         12    1.326E+02                                 F               0         Z-component position of node 4 (blade 1, node 3), m
         13    1.971E+01                                 F               0         X-component position of node 5 (blade 1, node 4), m
         14   -2.819E+01                                 F               0         Y-component position of node 5 (blade 1, node 4), m
         15    1.300E+02                                 F               0         Z-component position of node 5 (blade 1, node 4), m
         16    1.909E+01                                 F               0         X-component position of node 6 (blade 1, node 5), m
         17   -3.101E+01                                 F               0         Y-component position of node 6 (blade 1, node 5), m
         18    1.274E+02                                 F               0         Z-component position of node 6 (blade 1, node 5), m
         19    1.847E+01                                 F               0         X-component position of node 7 (blade 1, node 6), m
         20   -3.383E+01                                 F               0         Y-component position of node 7 (blade 1, node 6), m
         21    1.248E+02                                 F               0         Z-component position of node 7 (blade 1, node 6), m
         22    1.785E+01                                 F               0         X-component position of node 8 (blade 1, node 7), m
         23   -3.664E+01                                 F               0         Y-component position of node 8 (blade 1, node 7), m
         24    1.223E+02                                 F               0         Z-component position of node 8 (blade 1, node 7), m
         25    1.724E+01                                 F               0         X-component position of node 9 (blade 1, node 8), m
         26   -3.946E+01                                 F               0         Y-component position of node 9 (blade 1, node 8), m
         27    1.197E+02                                 F               0         Z-component position of node 9 (blade 1, node 8), m
         28    1.662E+01                                 F               0         X-component position of node 10 (blade 1, node 9), m
         29   -4.228E+01                                 F               0         Y-component position of node 10 (blade 1, node 9), m
         30    1.171E+02                                 F               0         Z-component position of node 10 (blade 1, node 9), m
         31    1.600E+01                                 F               0         X-component position of node 11 (blade 1, node 10), m
         32   -4.509E+01                                 F               0         Y-component position of node 11 (blade 1, node 10), m
         33    1.145E+02                                 F               0         Z-component position of node 11 (blade 1, node 10), m
         34    1.539E+01                                 F               0         X-component position of node 12 (blade 1, node 11), m
         35   -4.791E+01                                 F               0         Y-component position of node 12 (blade 1, node 11), m
         36    1.119E+02                                 F               0         Z-component position of node 12 (blade 1, node 11), m
         37    1.477E+01                                 F               0         X-component position of node 13 (blade 1, node 12), m
         38   -5.072E+01                                 F               0         Y-component position of node 13 (blade 1, node 12), m
         39    1.094E+02                                 F               0         Z-component position of node 13 (blade 1, node 12), m
         40    1.415E+01                                 F               0         X-component position of node 14 (blade 1, node 13), m
         41   -5.354E+01                                 F               0         Y-component position of node 14 (blade 1, node 13), m
         42    1.068E+02                                 F               0         Z-component position of node 14 (blade 1, node 13), m
         43    1.353E+01                                 F               0         X-component position of node 15 (blade 1, node 14), m
         44   -5.636E+01                                 F               0         Y-component position of node 15 (blade 1, node 14), m
         45    1.042E+02                                 F               0         Z-component position of node 15 (blade 1, node 14), m
         46    1.292E+01                                 F               0         X-component position of node 16 (blade 1, node 15), m
         47   -5.917E+01                                 F               0         Y-component position of node 16 (blade 1, node 15), m
         48    1.016E+02                                 F               0         Z-component position of node 16 (blade 1, node 15), m
         49    1.230E+01                                 F               0         X-component position of node 17 (blade 1, node 16), m
         50   -6.199E+01                                 F               0         Y-component position of node 17 (blade 1, node 16), m
         51    9.905E+01                                 F               0         Z-component position of node 17 (blade 1, node 16), m
         52    1.168E+01                                 F               0         X-component position of node 18 (blade 1, node 17), m
         53   -6.481E+01                                 F               0         Y-component position of node 18 (blade 1, node 17), m
         54    9.647E+01                                 F               0         Z-component position of node 18 (blade 1, node 17), m
         55    1.107E+01                                 F               0         X-component position of node 19 (blade 1, node 18), m
         56   -6.762E+01                                 F               0         Y-component position of node 19 (blade 1, node 18), m
         57    9.389E+01                                 F               0         Z-component position of node 19 (blade 1, node 18), m
         58    1.045E+01                                 F               0         X-component position of node 20 (blade 1, node 19), m
         59   -7.044E+01                                 F               0         Y-component position of node 20 (blade 1, node 19), m
         60    9.131E+01                                 F               0         Z-component position of node 20 (blade 1, node 19), m
         61    9.832E+00                                 F               0         X-component position of node 21 (blade 1, node 20), m
         62   -7.325E+01                                 F               0         Y-component position of node 21 (blade 1, node 20), m
         63    8.874E+01                                 F               0         Z-component position of node 21 (blade 1, node 20), m
         64    9.215E+00                                 F               0         X-component position of node 22 (blade 1, node 21), m
         65   -7.607E+01                                 F               0         Y-component position of node 22 (blade 1, node 21), m
         66    8.616E+01                                 F               0         Z-component position of node 22 (blade 1, node 21), m
         67    8.598E+00                                 F               0         X-component position of node 23 (blade 1, node 22), m
         68   -7.889E+01                                 F               0         Y-component position of node 23 (blade 1, node 22), m
         69    8.358E+01                                 F               0         Z-component position of node 23 (blade 1, node 22), m
         70    7.981E+00                                 F               0         X-component position of node 24 (blade 1, node 23), m
         71   -8.170E+01                                 F               0         Y-component position of node 24 (blade 1, node 23), m
         72    8.100E+01                                 F               0         Z-component position of node 24 (blade 1, node 23), m
         73    7.363E+00                                 F               0         X-component position of node 25 (blade 1, node 24), m
         74   -8.452E+01                                 F               0         Y-component position of node 25 (blade 1, node 24), m
         75    7.842E+01                                 F               0         Z-component position of node 25 (blade 1, node 24), m
         76    6.746E+00                                 F               0         X-component position of node 26 (blade 1, node 25), m
         77   -8.734E+01                                 F               0         Y-component position of node 26 (blade 1, node 25), m
         78    7.585E+01                                 F               0         Z-component position of node 26 (blade 1, node 25), m
         79    6.129E+00                                 F               0         X-component position of node 27 (blade 1, node 26), m
         80   -9.015E+01                                 F               0         Y-component position of node 27 (blade 1, node 26), m
         81    7.327E+01                                 F               0         Z-component position of node 27 (blade 1, node 26), m
         82    5.512E+00                                 F               0         X-component position of node 28 (blade 1, node 27), m
         83   -9.297E+01                                 F               0         Y-component position of node 28 (blade 1, node 27), m
         84    7.069E+01                                 F               0         Z-component position of node 28 (blade 1, node 27), m
         85    4.989E+00                                 F               0         X-component position of node 29 (blade 1, node 28), m
         86   -9.536E+01                                 F               0         Y-component position of node 29 (blade 1, node 28), m
         87    6.850E+01                                 F               0         Z-component position of node 29 (blade 1, node 28), m
         88    2.381E+01                                 F               0         X-component position of node 30 (blade 2, node 1), m
         89   -1.850E+00                                 F               0         Y-component position of node 30 (blade 2, node 1), m
         90    1.477E+02                                 F               0         Z-component position of node 30 (blade 2, node 1), m
         91    2.369E+01                                 F               0         X-component position of node 31 (blade 2, node 2), m
         92   -5.721E-01                                 F               0         Y-component position of node 31 (blade 2, node 2), m
         93    1.474E+02                                 F               0         Z-component position of node 31 (blade 2, node 2), m
         94    2.205E+01                                 F               0         X-component position of node 32 (blade 2, node 3), m
         95    1.681E+01                                 F               0         Y-component position of node 32 (blade 2, node 3), m
         96    1.424E+02                                 F               0         Z-component position of node 32 (blade 2, node 3), m
         97    2.170E+01                                 F               0         X-component position of node 33 (blade 2, node 4), m
         98    2.051E+01                                 F               0         Y-component position of node 33 (blade 2, node 4), m
         99    1.413E+02                                 F               0         Z-component position of node 33 (blade 2, node 4), m
        100    2.135E+01                                 F               0         X-component position of node 34 (blade 2, node 5), m
        101    2.421E+01                                 F               0         Y-component position of node 34 (blade 2, node 5), m
        102    1.403E+02                                 F               0         Z-component position of node 34 (blade 2, node 5), m
        103    2.099E+01                                 F               0         X-component position of node 35 (blade 2, node 6), m
        104    2.792E+01                                 F               0         Y-component position of node 35 (blade 2, node 6), m
        105    1.392E+02                                 F               0         Z-component position of node 35 (blade 2, node 6), m
        106    2.064E+01                                 F               0         X-component position of node 36 (blade 2, node 7), m
        107    3.162E+01                                 F               0         Y-component position of node 36 (blade 2, node 7), m
        108    1.381E+02                                 F               0         Z-component position of node 36 (blade 2, node 7), m
        109    2.029E+01                                 F               0         X-component position of node 37 (blade 2, node 8), m
        110    3.532E+01                                 F               0         Y-component position of node 37 (blade 2, node 8), m
        111    1.371E+02                                 F               0         Z-component position of node 37 (blade 2, node 8), m
        112    1.994E+01                                 F               0         X-component position of node 38 (blade 2, node 9), m
        113    3.903E+01                                 F               0         Y-component position of node 38 (blade 2, node 9), m
        114    1.360E+02                                 F               0         Z-component position of node 38 (blade 2, node 9), m
        115    1.959E+01                                 F               0         X-component position of node 39 (blade 2, node 10), m
        116    4.273E+01                                 F               0         Y-component position of node 39 (blade 2, node 10), m
        117    1.350E+02                                 F               0         Z-component position of node 39 (blade 2, node 10), m
        118    1.924E+01                                 F               0         X-component position of node 40 (blade 2, node 11), m
        119    4.643E+01                                 F               0         Y-component position of node 40 (blade 2, node 11), m
        120    1.339E+02                                 F               0         Z-component position of node 40 (blade 2, node 11), m
        121    1.889E+01                                 F               0         X-component position of node 41 (blade 2, node 12), m
        122    5.014E+01                                 F               0         Y-component position of node 41 (blade 2, node 12), m
        123    1.328E+02                                 F               0         Z-component position of node 41 (blade 2, node 12), m
        124    1.854E+01                                 F               0         X-component position of node 42 (blade 2, node 13), m
        125    5.384E+01                                 F               0         Y-component position of node 42 (blade 2, node 13), m
        126    1.318E+02                                 F               0         Z-component position of node 42 (blade 2, node 13), m
        127    1.819E+01                                 F               0         X-component position of node 43 (blade 2, node 14), m
        128    5.754E+01                                 F               0         Y-component position of node 43 (blade 2, node 14), m
        129    1.307E+02                                 F               0         Z-component position of node 43 (blade 2, node 14), m
        130    1.784E+01                                 F               0         X-component position of node 44 (blade 2, node 15), m
        131    6.124E+01                                 F               0         Y-component position of node 44 (blade 2, node 15), m
        132    1.297E+02                                 F               0         Z-component position of node 44 (blade 2, node 15), m
        133    1.749E+01                                 F               0         X-component position of node 45 (blade 2, node 16), m
        134    6.495E+01                                 F               0         Y-component position of node 45 (blade 2, node 16), m
        135    1.286E+02                                 F               0         Z-component position of node 45 (blade 2, node 16), m
        136    1.714E+01                                 F               0         X-component position of node 46 (blade 2, node 17), m
        137    6.865E+01                                 F               0         Y-component position of node 46 (blade 2, node 17), m
        138    1.275E+02                                 F               0         Z-component position of node 46 (blade 2, node 17), m
        139    1.679E+01                                 F               0         X-component position of node 47 (blade 2, node 18), m
        140    7.235E+01                                 F               0         Y-component position of node 47 (blade 2, node 18), m
        141    1.265E+02                                 F               0         Z-component position of node 47 (blade 2, node 18), m
        142    1.643E+01                                 F               0         X-component position of node 48 (blade 2, node 19), m
        143    7.606E+01                                 F               0         Y-component position of node 48 (blade 2, node 19), m
        144    1.254E+02                                 F               0         Z-component position of node 48 (blade 2, node 19), m
        145    1.608E+01                                 F               0         X-component position of node 49 (blade 2, node 20), m
        146    7.976E+01                                 F               0         Y-component position of node 49 (blade 2, node 20), m
        147    1.244E+02                                 F               0         Z-component position of node 49 (blade 2, node 20), m
        148    1.573E+01                                 F               0         X-component position of node 50 (blade 2, node 21), m
        149    8.346E+01                                 F               0         Y-component position of node 50 (blade 2, node 21), m
        150    1.233E+02                                 F               0         Z-component position of node 50 (blade 2, node 21), m
        151    1.538E+01                                 F               0         X-component position of node 51 (blade 2, node 22), m
        152    8.717E+01                                 F               0         Y-component position of node 51 (blade 2, node 22), m
        153    1.222E+02                                 F               0         Z-component position of node 51 (blade 2, node 22), m
        154    1.503E+01                                 F               0         X-component position of node 52 (blade 2, node 23), m
        155    9.087E+01                                 F               0         Y-component position of node 52 (blade 2, node 23), m
        156    1.212E+02                                 F               0         Z-component position of node 52 (blade 2, node 23), m
        157    1.468E+01                                 F               0         X-component position of node 53 (blade 2, node 24), m
        158    9.457E+01                                 F               0         Y-component position of node 53 (blade 2, node 24), m
        159    1.201E+02                                 F               0         Z-component position of node 53 (blade 2, node 24), m
        160    1.433E+01                                 F               0         X-component position of node 54 (blade 2, node 25), m
        161    9.827E+01                                 F               0         Y-component position of node 54 (blade 2, node 25), m
        162    1.191E+02                                 F               0         Z-component position of node 54 (blade 2, node 25), m
        163    1.398E+01                                 F               0         X-component position of node 55 (blade 2, node 26), m
        164    1.020E+02                                 F               0         Y-component position of node 55 (blade 2, node 26), m
        165    1.180E+02                                 F               0         Z-component position of node 55 (blade 2, node 26), m
        166    1.363E+01                                 F               0         X-component position of node 56 (blade 2, node 27), m
        167    1.057E+02                                 F               0         Y-component position of node 56 (blade 2, node 27), m
        168    1.169E+02                                 F               0         Z-component position of node 56 (blade 2, node 27), m
        169    1.333E+01                                 F               0         X-component position of node 57 (blade 2, node 28), m
        170    1.088E+02                                 F               0         Y-component position of node 57 (blade 2, node 28), m
        171    1.160E+02                                 F               0         Z-component position of node 57 (blade 2, node 28), m
        172    2.570E+01                                 F               0         X-component position of node 58 (blade 3, node 1), m
        173   -8.424E+00                                 F               0         Y-component position of node 58 (blade 3, node 1), m
        174    1.545E+02                                 F               0         Z-component position of node 58 (blade 3, node 1), m
        175    2.604E+01                                 F               0         X-component position of node 59 (blade 3, node 2), m
        176   -8.730E+00                                 F               0         Y-component position of node 59 (blade 3, node 2), m
        177    1.557E+02                                 F               0         Z-component position of node 59 (blade 3, node 2), m
        178    3.058E+01                                 F               0         X-component position of node 60 (blade 3, node 3), m
        179   -1.289E+01                                 F               0         Y-component position of node 60 (blade 3, node 3), m
        180    1.728E+02                                 F               0         Z-component position of node 60 (blade 3, node 3), m
        181    3.155E+01                                 F               0         X-component position of node 61 (blade 3, node 4), m
        182   -1.378E+01                                 F               0         Y-component position of node 61 (blade 3, node 4), m
        183    1.764E+02                                 F               0         Z-component position of node 61 (blade 3, node 4), m
        184    3.252E+01                                 F               0         X-component position of node 62 (blade 3, node 5), m
        185   -1.467E+01                                 F               0         Y-component position of node 62 (blade 3, node 5), m
        186    1.801E+02                                 F               0         Z-component position of node 62 (blade 3, node 5), m
        187    3.348E+01                                 F               0         X-component position of node 63 (blade 3, node 6), m
        188   -1.555E+01                                 F               0         Y-component position of node 63 (blade 3, node 6), m
        189    1.837E+02                                 F               0         Z-component position of node 63 (blade 3, node 6), m
        190    3.445E+01                                 F               0         X-component position of node 64 (blade 3, node 7), m
        191   -1.644E+01                                 F               0         Y-component position of node 64 (blade 3, node 7), m
        192    1.873E+02                                 F               0         Z-component position of node 64 (blade 3, node 7), m
        193    3.542E+01                                 F               0         X-component position of node 65 (blade 3, node 8), m
        194   -1.733E+01                                 F               0         Y-component position of node 65 (blade 3, node 8), m
        195    1.910E+02                                 F               0         Z-component position of node 65 (blade 3, node 8), m
        196    3.639E+01                                 F               0         X-component position of node 66 (blade 3, node 9), m
        197   -1.821E+01                                 F               0         Y-component position of node 66 (blade 3, node 9), m
        198    1.946E+02                                 F               0         Z-component position of node 66 (blade 3, node 9), m
        199    3.736E+01                                 F               0         X-component position of node 67 (blade 3, node 10), m
        200   -1.910E+01                                 F               0         Y-component position of node 67 (blade 3, node 10), m
        201    1.983E+02                                 F               0         Z-component position of node 67 (blade 3, node 10), m
        202    3.832E+01                                 F               0         X-component position of node 68 (blade 3, node 11), m
        203   -1.999E+01                                 F               0         Y-component position of node 68 (blade 3, node 11), m
        204    2.019E+02                                 F               0         Z-component position of node 68 (blade 3, node 11), m
        205    3.929E+01                                 F               0         X-component position of node 69 (blade 3, node 12), m
        206   -2.087E+01                                 F               0         Y-component position of node 69 (blade 3, node 12), m
        207    2.055E+02                                 F               0         Z-component position of node 69 (blade 3, node 12), m
        208    4.026E+01                                 F               0         X-component position of node 70 (blade 3, node 13), m
        209   -2.176E+01                                 F               0         Y-component position of node 70 (blade 3, node 13), m
        210    2.092E+02                                 F               0         Z-component position of node 70 (blade 3, node 13), m
        211    4.123E+01                                 F               0         X-component position of node 71 (blade 3, node 14), m