
Linearized model: Predictions were generated on 12-Feb-2024 at 18:31:58 using OpenFAST, compiled as a 64-bit application using single precision at commit v3.5.1
 linked with  NWTC Subroutine Library; ElastoDyn; InflowWind; AeroDyn; ServoDyn; HydroDyn; MAP++ (<1.20.10>, <Oct-20-2023>)

Description from the FAST input file: CCT-9 Campign 4 model. Input files to be run with OpenFAST 3.5.0. GitHub branch from Lu Wang (https://github.com/luwang00/openfast/tree/dev) compiled on March 7, 2023.

Simulation information:
   Simulation time:                  1004.7250 s
   Rotor Speed:                         1.0469 rad/s
   Azimuth:                             4.6112 rad
   Wind Speed:                         12.0000 m/s
   Number of continuous states:         0
   Number of discrete states:           0
   Number of constraint states:         0
   Number of inputs:                  303
   Number of outputs:                   1
   Jacobians included in this file?    No

Order of inputs:
     Column   Operating Point                     Rotating Frame? Derivative Order Description
   ---------- ---------------                     --------------- ---------------- -----------
          1   -1.080E+01                                 F               0         X-component position of node 1 (hub), m
          2    0.000E+00                                 F               0         Y-component position of node 1 (hub), m
          3    1.497E+02                                 F               0         Z-component position of node 1 (hub), m
          4    2.412E+01                                 F               0         X-component position of node 2 (blade 1, node 1), m
          5   -1.621E+00                                 F               0         Y-component position of node 2 (blade 1, node 1), m
          6    1.490E+02                                 F               0         Z-component position of node 2 (blade 1, node 1), m
          7    2.408E+01                                 F               0         X-component position of node 3 (blade 1, node 2), m
          8   -2.885E-01                                 F               0         Y-component position of node 3 (blade 1, node 2), m
          9    1.489E+02                                 F               0         Z-component position of node 3 (blade 1, node 2), m
         10    2.347E+01                                 F               0         X-component position of node 4 (blade 1, node 3), m
         11    1.783E+01                                 F               0         Y-component position of node 4 (blade 1, node 3), m
         12    1.480E+02                                 F               0         Z-component position of node 4 (blade 1, node 3), m
         13    2.334E+01                                 F               0         X-component position of node 5 (blade 1, node 4), m
         14    2.169E+01                                 F               0         Y-component position of node 5 (blade 1, node 4), m
         15    1.478E+02                                 F               0         Z-component position of node 5 (blade 1, node 4), m
         16    2.321E+01                                 F               0         X-component position of node 6 (blade 1, node 5), m
         17    2.555E+01                                 F               0         Y-component position of node 6 (blade 1, node 5), m
         18    1.476E+02                                 F               0         Z-component position of node 6 (blade 1, node 5), m
         19    2.308E+01                                 F               0         X-component position of node 7 (blade 1, node 6), m
         20    2.941E+01                                 F               0         Y-component position of node 7 (blade 1, node 6), m
         21    1.474E+02                                 F               0         Z-component position of node 7 (blade 1, node 6), m
         22    2.295E+01                                 F               0         X-component position of node 8 (blade 1, node 7), m
         23    3.327E+01                                 F               0         Y-component position of node 8 (blade 1, node 7), m
         24    1.472E+02                                 F               0         Z-component position of node 8 (blade 1, node 7), m
         25    2.282E+01                                 F               0         X-component position of node 9 (blade 1, node 8), m
         26    3.713E+01                                 F               0         Y-component position of node 9 (blade 1, node 8), m
         27    1.470E+02                                 F               0         Z-component position of node 9 (blade 1, node 8), m
         28    2.269E+01                                 F               0         X-component position of node 10 (blade 1, node 9), m
         29    4.099E+01                                 F               0         Y-component position of node 10 (blade 1, node 9), m
         30    1.468E+02                                 F               0         Z-component position of node 10 (blade 1, node 9), m
         31    2.256E+01                                 F               0         X-component position of node 11 (blade 1, node 10), m
         32    4.485E+01                                 F               0         Y-component position of node 11 (blade 1, node 10), m
         33    1.466E+02                                 F               0         Z-component position of node 11 (blade 1, node 10), m
         34    2.243E+01                                 F               0         X-component position of node 12 (blade 1, node 11), m
         35    4.871E+01                                 F               0         Y-component position of node 12 (blade 1, node 11), m
         36    1.464E+02                                 F               0         Z-component position of node 12 (blade 1, node 11), m
         37    2.230E+01                                 F               0         X-component position of node 13 (blade 1, node 12), m
         38    5.257E+01                                 F               0         Y-component position of node 13 (blade 1, node 12), m
         39    1.462E+02                                 F               0         Z-component position of node 13 (blade 1, node 12), m
         40    2.217E+01                                 F               0         X-component position of node 14 (blade 1, node 13), m
         41    5.644E+01                                 F               0         Y-component position of node 14 (blade 1, node 13), m
         42    1.460E+02                                 F               0         Z-component position of node 14 (blade 1, node 13), m
         43    2.204E+01                                 F               0         X-component position of node 15 (blade 1, node 14), m
         44    6.030E+01                                 F               0         Y-component position of node 15 (blade 1, node 14), m
         45    1.458E+02                                 F               0         Z-component position of node 15 (blade 1, node 14), m
         46    2.191E+01                                 F               0         X-component position of node 16 (blade 1, node 15), m
         47    6.416E+01                                 F               0         Y-component position of node 16 (blade 1, node 15), m
         48    1.456E+02                                 F               0         Z-component position of node 16 (blade 1, node 15), m
         49    2.178E+01                                 F               0         X-component position of node 17 (blade 1, node 16), m
         50    6.802E+01                                 F               0         Y-component position of node 17 (blade 1, node 16), m
         51    1.454E+02                                 F               0         Z-component position of node 17 (blade 1, node 16), m
         52    2.166E+01                                 F               0         X-component position of node 18 (blade 1, node 17), m
         53    7.188E+01                                 F               0         Y-component position of node 18 (blade 1, node 17), m
         54    1.452E+02                                 F               0         Z-component position of node 18 (blade 1, node 17), m
         55    2.153E+01                                 F               0         X-component position of node 19 (blade 1, node 18), m
         56    7.574E+01                                 F               0         Y-component position of node 19 (blade 1, node 18), m
         57    1.450E+02                                 F               0         Z-component position of node 19 (blade 1, node 18), m
         58    2.140E+01                                 F               0         X-component position of node 20 (blade 1, node 19), m
         59    7.960E+01                                 F               0         Y-component position of node 20 (blade 1, node 19), m
         60    1.448E+02                                 F               0         Z-component position of node 20 (blade 1, node 19), m
         61    2.127E+01                                 F               0         X-component position of node 21 (blade 1, node 20), m
         62    8.346E+01                                 F               0         Y-component position of node 21 (blade 1, node 20), m
         63    1.446E+02                                 F               0         Z-component position of node 21 (blade 1, node 20), m
         64    2.114E+01                                 F               0         X-component position of node 22 (blade 1, node 21), m
         65    8.732E+01                                 F               0         Y-component position of node 22 (blade 1, node 21), m
         66    1.444E+02                                 F               0         Z-component position of node 22 (blade 1, node 21), m
         67    2.101E+01                                 F               0         X-component position of node 23 (blade 1, node 22), m
         68    9.118E+01                                 F               0         Y-component position of node 23 (blade 1, node 22), m
         69    1.442E+02                                 F               0         Z-component position of node 23 (blade 1, node 22), m
         70    2.088E+01                                 F               0         X-component position of node 24 (blade 1, node 23), m
         71    9.504E+01                                 F               0         Y-component position of node 24 (blade 1, node 23), m
         72    1.440E+02                                 F               0         Z-component position of node 24 (blade 1, node 23), m
         73    2.075E+01                                 F               0         X-component position of node 25 (blade 1, node 24), m
         74    9.890E+01                                 F               0         Y-component position of node 25 (blade 1, node 24), m
         75    1.438E+02                                 F               0         Z-component position of node 25 (blade 1, node 24), m
         76    2.062E+01                                 F               0         X-component position of node 26 (blade 1, node 25), m
         77    1.028E+02                                 F               0         Y-component position of node 26 (blade 1, node 25), m
         78    1.436E+02                                 F               0         Z-component position of node 26 (blade 1, node 25), m
         79    2.049E+01                                 F               0         X-component position of node 27 (blade 1, node 26), m
         80    1.066E+02                                 F               0         Y-component position of node 27 (blade 1, node 26), m
         81    1.434E+02                                 F               0         Z-component position of node 27 (blade 1, node 26), m
         82    2.036E+01                                 F               0         X-component position of node 28 (blade 1, node 27), m
         83    1.105E+02                                 F               0         Y-component position of node 28 (blade 1, node 27), m
         84    1.432E+02                                 F               0         Z-component position of node 28 (blade 1, node 27), m
         85    2.025E+01                                 F               0         X-component position of node 29 (blade 1, node 28), m
         86    1.138E+02                                 F               0         Y-component position of node 29 (blade 1, node 28), m
         87    1.431E+02                                 F               0         Z-component position of node 29 (blade 1, node 28), m
         88    2.560E+01                                 F               0         X-component position of node 30 (blade 2, node 1), m
         89   -9.638E+00                                 F               0         Y-component position of node 30 (blade 2, node 1), m
         90    1.540E+02                                 F               0         Z-component position of node 30 (blade 2, node 1), m
         91    2.592E+01                                 F               0         X-component position of node 31 (blade 2, node 2), m
         92   -1.024E+01                                 F               0         Y-component position of node 31 (blade 2, node 2), m
         93    1.552E+02                                 F               0         Z-component position of node 31 (blade 2, node 2), m
         94    3.017E+01                                 F               0         X-component position of node 32 (blade 2, node 3), m
         95   -1.839E+01                                 F               0         Y-component position of node 32 (blade 2, node 3), m
         96    1.708E+02                                 F               0         Z-component position of node 32 (blade 2, node 3), m
         97    3.107E+01                                 F               0         X-component position of node 33 (blade 2, node 4), m
         98   -2.013E+01                                 F               0         Y-component position of node 33 (blade 2, node 4), m
         99    1.742E+02                                 F               0         Z-component position of node 33 (blade 2, node 4), m
        100    3.198E+01                                 F               0         X-component position of node 34 (blade 2, node 5), m
        101   -2.186E+01                                 F               0         Y-component position of node 34 (blade 2, node 5), m
        102    1.775E+02                                 F               0         Z-component position of node 34 (blade 2, node 5), m
        103    3.289E+01                                 F               0         X-component position of node 35 (blade 2, node 6), m
        104   -2.360E+01                                 F               0         Y-component position of node 35 (blade 2, node 6), m
        105    1.808E+02                                 F               0         Z-component position of node 35 (blade 2, node 6), m
        106    3.379E+01                                 F               0         X-component position of node 36 (blade 2, node 7), m
        107   -2.534E+01                                 F               0         Y-component position of node 36 (blade 2, node 7), m
        108    1.842E+02                                 F               0         Z-component position of node 36 (blade 2, node 7), m
        109    3.470E+01                                 F               0         X-component position of node 37 (blade 2, node 8), m
        110   -2.707E+01                                 F               0         Y-component position of node 37 (blade 2, node 8), m
        111    1.875E+02                                 F               0         Z-component position of node 37 (blade 2, node 8), m
        112    3.560E+01                                 F               0         X-component position of node 38 (blade 2, node 9), m
        113   -2.881E+01                                 F               0         Y-component position of node 38 (blade 2, node 9), m
        114    1.908E+02                                 F               0         Z-component position of node 38 (blade 2, node 9), m
        115    3.651E+01                                 F               0         X-component position of node 39 (blade 2, node 10), m
        116   -3.055E+01                                 F               0         Y-component position of node 39 (blade 2, node 10), m
        117    1.942E+02                                 F               0         Z-component position of node 39 (blade 2, node 10), m
        118    3.742E+01                                 F               0         X-component position of node 40 (blade 2, node 11), m
        119   -3.228E+01                                 F               0         Y-component position of node 40 (blade 2, node 11), m
        120    1.975E+02                                 F               0         Z-component position of node 40 (blade 2, node 11), m
        121    3.832E+01                                 F               0         X-component position of node 41 (blade 2, node 12), m
        122   -3.402E+01                                 F               0         Y-component position of node 41 (blade 2, node 12), m
        123    2.008E+02                                 F               0         Z-component position of node 41 (blade 2, node 12), m
        124    3.923E+01                                 F               0         X-component position of node 42 (blade 2, node 13), m
        125   -3.576E+01                                 F               0         Y-component position of node 42 (blade 2, node 13), m
        126    2.042E+02                                 F               0         Z-component position of node 42 (blade 2, node 13), m
        127    4.013E+01                                 F               0         X-component position of node 43 (blade 2, node 14), m
        128   -3.749E+01                                 F               0         Y-component position of node 43 (blade 2, node 14), m
        129    2.075E+02                                 F               0         Z-component position of node 43 (blade 2, node 14), m
        130    4.104E+01                                 F               0         X-component position of node 44 (blade 2, node 15), m
        131   -3.923E+01                                 F               0         Y-component position of node 44 (blade 2, node 15), m
        132    2.109E+02                                 F               0         Z-component position of node 44 (blade 2, node 15), m
        133    4.195E+01                                 F               0         X-component position of node 45 (blade 2, node 16), m
        134   -4.097E+01                                 F               0         Y-component position of node 45 (blade 2, node 16), m
        135    2.142E+02                                 F               0         Z-component position of node 45 (blade 2, node 16), m
        136    4.285E+01                                 F               0         X-component position of node 46 (blade 2, node 17), m
        137   -4.270E+01                                 F               0         Y-component position of node 46 (blade 2, node 17), m
        138    2.175E+02                                 F               0         Z-component position of node 46 (blade 2, node 17), m
        139    4.376E+01                                 F               0         X-component position of node 47 (blade 2, node 18), m
        140   -4.444E+01                                 F               0         Y-component position of node 47 (blade 2, node 18), m
        141    2.209E+02                                 F               0         Z-component position of node 47 (blade 2, node 18), m
        142    4.466E+01                                 F               0         X-component position of node 48 (blade 2, node 19), m
        143   -4.618E+01                                 F               0         Y-component position of node 48 (blade 2, node 19), m
        144    2.242E+02                                 F               0         Z-component position of node 48 (blade 2, node 19), m
        145    4.557E+01                                 F               0         X-component position of node 49 (blade 2, node 20), m
        146   -4.791E+01                                 F               0         Y-component position of node 49 (blade 2, node 20), m
        147    2.275E+02                                 F               0         Z-component position of node 49 (blade 2, node 20), m
        148    4.647E+01                                 F               0         X-component position of node 50 (blade 2, node 21), m
        149   -4.965E+01                                 F               0         Y-component position of node 50 (blade 2, node 21), m
        150    2.309E+02                                 F               0         Z-component position of node 50 (blade 2, node 21), m
        151    4.738E+01                                 F               0         X-component position of node 51 (blade 2, node 22), m
        152   -5.139E+01                                 F               0         Y-component position of node 51 (blade 2, node 22), m
        153    2.342E+02                                 F               0         Z-component position of node 51 (blade 2, node 22), m
        154    4.829E+01                                 F               0         X-component position of node 52 (blade 2, node 23), m
        155   -5.312E+01                                 F               0         Y-component position of node 52 (blade 2, node 23), m
        156    2.375E+02                                 F               0         Z-component position of node 52 (blade 2, node 23), m
        157    4.919E+01                                 F               0         X-component position of node 53 (blade 2, node 24), m
        158   -5.486E+01                                 F               0         Y-component position of node 53 (blade 2, node 24), m
        159    2.409E+02                                 F               0         Z-component position of node 53 (blade 2, node 24), m
        160    5.010E+01                                 F               0         X-component position of node 54 (blade 2, node 25), m
        161   -5.660E+01                                 F               0         Y-component position of node 54 (blade 2, node 25), m
        162    2.442E+02                                 F               0         Z-component position of node 54 (blade 2, node 25), m
        163    5.100E+01                                 F               0         X-component position of node 55 (blade 2, node 26), m
        164   -5.833E+01                                 F               0         Y-component position of node 55 (blade 2, node 26), m
        165    2.475E+02                                 F               0         Z-component position of node 55 (blade 2, node 26), m
        166    5.191E+01                                 F               0         X-component position of node 56 (blade 2, node 27), m
        167   -6.007E+01                                 F               0         Y-component position of node 56 (blade 2, node 27), m
        168    2.509E+02                                 F               0         Z-component position of node 56 (blade 2, node 27), m
        169    5.268E+01                                 F               0         X-component position of node 57 (blade 2, node 28), m
        170   -6.154E+01                                 F               0         Y-component position of node 57 (blade 2, node 28), m
        171    2.537E+02                                 F               0         Z-component position of node 57 (blade 2, node 28), m
        172    2.319E+01                                 F               0         X-component position of node 58 (blade 3, node 1), m
        173   -1.019E+01                                 F               0         Y-component position of node 58 (blade 3, node 1), m
        174    1.448E+02                                 F               0         Z-component position of node 58 (blade 3, node 1), m
        175    2.293E+01                                 F               0         X-component position of node 59 (blade 3, node 2), m
        176   -1.093E+01                                 F               0         Y-component position of node 59 (blade 3, node 2), m
        177    1.437E+02                                 F               0         Z-component position of node 59 (blade 3, node 2), m
        178    1.928E+01                                 F               0         X-component position of node 60 (blade 3, node 3), m
        179   -2.089E+01                                 F               0         Y-component position of node 60 (blade 3, node 3), m
        180    1.289E+02                                 F               0         Z-component position of node 60 (blade 3, node 3), m
        181    1.851E+01                                 F               0         X-component position of node 61 (blade 3, node 4), m
        182   -2.302E+01                                 F               0         Y-component position of node 61 (blade 3, node 4), m
        183    1.258E+02                                 F               0         Z-component position of node 61 (blade 3, node 4), m
        184    1.773E+01                                 F               0         X-component position of node 62 (blade 3, node 5), m
        185   -2.514E+01                                 F               0         Y-component position of node 62 (blade 3, node 5), m
        186    1.227E+02                                 F               0         Z-component position of node 62 (blade 3, node 5), m
        187    1.695E+01                                 F               0         X-component position of node 63 (blade 3, node 6), m
        188   -2.726E+01                                 F               0         Y-component position of node 63 (blade 3, node 6), m
        189    1.195E+02                                 F               0         Z-component position of node 63 (blade 3, node 6), m
        190    1.618E+01                                 F               0         X-component position of node 64 (blade 3, node 7), m
        191   -2.939E+01                                 F               0         Y-component position of node 64 (blade 3, node 7), m
        192    1.164E+02                                 F               0         Z-component position of node 64 (blade 3, node 7), m
        193    1.540E+01                                 F               0         X-component position of node 65 (blade 3, node 8), m
        194   -3.151E+01                                 F               0         Y-component position of node 65 (blade 3, node 8), m
        195    1.133E+02                                 F               0         Z-component position of node 65 (blade 3, node 8), m
        196    1.462E+01                                 F               0         X-component position of node 66 (blade 3, node 9), m
        197   -3.364E+01                                 F               0         Y-component position of node 66 (blade 3, node 9), m
        198    1.101E+02                                 F               0         Z-component position of node 66 (blade 3, node 9), m
        199    1.385E+01                                 F               0         X-component position of node 67 (blade 3, node 10), m
        200   -3.576E+01                                 F               0         Y-component position of node 67 (blade 3, node 10), m
        201    1.070E+02                                 F               0         Z-component position of node 67 (blade 3, node 10), m
        202    1.307E+01                                 F               0         X-component position of node 68 (blade 3, node 11), m
        203   -3.788E+01                                 F               0         Y-component position of node 68 (blade 3, node 11), m
        204    1.038E+02                                 F               0         Z-component position of node 68 (blade 3, node 11), m
        205    1.230E+01                                 F               0         X-component position of node 69 (blade 3, node 12), m
        206   -4.001E+01                                 F               0         Y-component position of node 69 (blade 3, node 12), m
        207    1.007E+02                                 F               0         Z-component position of node 69 (blade 3, node 12), m
        208    1.152E+01                                 F               0         X-component position of node 70 (blade 3, node 13), m
        209   -4.213E+01                                 F               0         Y-component position of node 70 (blade 3, node 13), m
        210    9.757E+01                                 F               0         Z-component position of node 70 (blade 3, node 13), m
        211    1.074E+01                                 F               0         X-component position of node 71 (blade 3, node 14), m