
Linearized model: Predictions were generated on 12-Feb-2024 at 18:31:58 using OpenFAST, compiled as a 64-bit application using single precision at commit v3.5.1
 linked with  NWTC Subroutine Library; ElastoDyn; InflowWind; AeroDyn; ServoDyn; HydroDyn; MAP++ (<1.20.10>, <Oct-20-2023>)

Description from the FAST input file: CCT-9 Campign 4 model. Input files to be run with OpenFAST 3.5.0. GitHub branch from Lu Wang (https://github.com/luwang00/openfast/tree/dev) compiled on March 7, 2023.

Simulation information:
   Simulation time:                  1006.4750 s
   Rotor Speed:                         1.0471 rad/s
   Azimuth:                             0.1603 rad
   Wind Speed:                         12.0000 m/s
   Number of continuous states:         0
   Number of discrete states:           0
   Number of constraint states:         0
   Number of inputs:                 1746
   Number of outputs:                   4
   Jacobians included in this file?    No

Order of inputs:
     Column   Operating Point                     Rotating Frame? Derivative Order Description
   ---------- ---------------                     --------------- ---------------- -----------
          1    1.518E+01                                 F               0         Tower X translation displacement, node 1, m
          2   -1.046E+00                                 F               0         Tower Y translation displacement, node 1, m
          3   -4.655E-01                                 F               0         Tower Z translation displacement, node 1, m
          4    1.704E+01                                 F               0         Tower X translation displacement, node 2, m
          5   -1.596E+00                                 F               0         Tower Y translation displacement, node 2, m
          6   -6.189E-01                                 F               0         Tower Z translation displacement, node 2, m
          7    1.890E+01                                 F               0         Tower X translation displacement, node 3, m
          8   -2.145E+00                                 F               0         Tower Y translation displacement, node 3, m
          9   -7.723E-01                                 F               0         Tower Z translation displacement, node 3, m
         10    2.076E+01                                 F               0         Tower X translation displacement, node 4, m
         11   -2.695E+00                                 F               0         Tower Y translation displacement, node 4, m
         12   -9.257E-01                                 F               0         Tower Z translation displacement, node 4, m
         13    2.262E+01                                 F               0         Tower X translation displacement, node 5, m
         14   -3.245E+00                                 F               0         Tower Y translation displacement, node 5, m
         15   -1.079E+00                                 F               0         Tower Z translation displacement, node 5, m
         16    2.449E+01                                 F               0         Tower X translation displacement, node 6, m
         17   -3.795E+00                                 F               0         Tower Y translation displacement, node 6, m
         18   -1.233E+00                                 F               0         Tower Z translation displacement, node 6, m
         19    2.635E+01                                 F               0         Tower X translation displacement, node 7, m
         20   -4.345E+00                                 F               0         Tower Y translation displacement, node 7, m
         21   -1.386E+00                                 F               0         Tower Z translation displacement, node 7, m
         22    2.821E+01                                 F               0         Tower X translation displacement, node 8, m
         23   -4.895E+00                                 F               0         Tower Y translation displacement, node 8, m
         24   -1.539E+00                                 F               0         Tower Z translation displacement, node 8, m
         25    3.007E+01                                 F               0         Tower X translation displacement, node 9, m
         26   -5.445E+00                                 F               0         Tower Y translation displacement, node 9, m
         27   -1.693E+00                                 F               0         Tower Z translation displacement, node 9, m
         28    3.193E+01                                 F               0         Tower X translation displacement, node 10, m
         29   -5.995E+00                                 F               0         Tower Y translation displacement, node 10, m
         30   -1.846E+00                                 F               0         Tower Z translation displacement, node 10, m
         31    3.379E+01                                 F               0         Tower X translation displacement, node 11, m
         32   -6.545E+00                                 F               0         Tower Y translation displacement, node 11, m
         33   -2.000E+00                                 F               0         Tower Z translation displacement, node 11, m
         34    9.886E-01,  1.521E-02, -1.501E-01         F               0         Tower X orientation angle, node 1, rad
         35   -8.345E-03,  9.989E-01,  4.629E-02         F               0         Tower Y orientation angle, node 1, rad
         36    1.507E-01, -4.451E-02,  9.876E-01         F               0         Tower Z orientation angle, node 1, rad
         37    9.886E-01,  1.521E-02, -1.501E-01         F               0         Tower X orientation angle, node 2, rad
         38   -8.345E-03,  9.989E-01,  4.629E-02         F               0         Tower Y orientation angle, node 2, rad
         39    1.507E-01, -4.451E-02,  9.876E-01         F               0         Tower Z orientation angle, node 2, rad
         40    9.886E-01,  1.521E-02, -1.501E-01         F               0         Tower X orientation angle, node 3, rad
         41   -8.345E-03,  9.989E-01,  4.629E-02         F               0         Tower Y orientation angle, node 3, rad
         42    1.507E-01, -4.451E-02,  9.876E-01         F               0         Tower Z orientation angle, node 3, rad
         43    9.886E-01,  1.521E-02, -1.501E-01         F               0         Tower X orientation angle, node 4, rad
         44   -8.345E-03,  9.989E-01,  4.629E-02         F               0         Tower Y orientation angle, node 4, rad
         45    1.507E-01, -4.451E-02,  9.876E-01         F               0         Tower Z orientation angle, node 4, rad
         46    9.886E-01,  1.521E-02, -1.501E-01         F               0         Tower X orientation angle, node 5, rad
         47   -8.345E-03,  9.989E-01,  4.629E-02         F               0         Tower Y orientation angle, node 5, rad
         48    1.507E-01, -4.451E-02,  9.876E-01         F               0         Tower Z orientation angle, node 5, rad
         49    9.886E-01,  1.521E-02, -1.501E-01         F               0         Tower X orientation angle, node 6, rad
         50   -8.345E-03,  9.989E-01,  4.629E-02         F               0         Tower Y orientation angle, node 6, rad
         51    1.507E-01, -4.451E-02,  9.876E-01         F               0         Tower Z orientation angle, node 6, rad
         52    9.886E-01,  1.521E-02, -1.501E-01         F               0         Tower X orientation angle, node 7, rad
         53   -8.345E-03,  9.989E-01,  4.629E-02         F               0         Tower Y orientation angle, node 7, rad
         54    1.507E-01, -4.451E-02,  9.876E-01         F               0         Tower Z orientation angle, node 7, rad
         55    9.886E-01,  1.521E-02, -1.501E-01         F               0         Tower X orientation angle, node 8, rad
         56   -8.345E-03,  9.989E-01,  4.629E-02         F               0         Tower Y orientation angle, node 8, rad
         57    1.507E-01, -4.451E-02,  9.876E-01         F               0         Tower Z orientation angle, node 8, rad
         58    9.886E-01,  1.521E-02, -1.501E-01         F               0         Tower X orientation angle, node 9, rad
         59   -8.345E-03,  9.989E-01,  4.629E-02         F               0         Tower Y orientation angle, node 9, rad
         60    1.507E-01, -4.451E-02,  9.876E-01         F               0         Tower Z orientation angle, node 9, rad
         61    9.886E-01,  1.521E-02, -1.501E-01         F               0         Tower X orientation angle, node 10, rad
         62   -8.345E-03,  9.989E-01,  4.629E-02         F               0         Tower Y orientation angle, node 10, rad
         63    1.507E-01, -4.451E-02,  9.876E-01         F               0         Tower Z orientation angle, node 10, rad
         64    9.886E-01,  1.521E-02, -1.501E-01         F               0         Tower X orientation angle, node 11, rad
         65   -8.345E-03,  9.989E-01,  4.629E-02         F               0         Tower Y orientation angle, node 11, rad
         66    1.507E-01, -4.451E-02,  9.876E-01         F               0         Tower Z orientation angle, node 11, rad
         67   -9.564E-05                                 F               0         Tower X translation velocity, node 1, m/s
         68    1.093E-02                                 F               0         Tower Y translation velocity, node 1, m/s
         69    5.143E-03                                 F               0         Tower Z translation velocity, node 1, m/s
         70   -3.432E-04                                 F               0         Tower X translation velocity, node 2, m/s
         71    1.763E-02                                 F               0         Tower Y translation velocity, node 2, m/s
         72    5.482E-03                                 F               0         Tower Z translation velocity, node 2, m/s
         73   -5.907E-04                                 F               0         Tower X translation velocity, node 3, m/s
         74    2.432E-02                                 F               0         Tower Y translation velocity, node 3, m/s
         75    5.822E-03                                 F               0         Tower Z translation velocity, node 3, m/s
         76   -8.383E-04                                 F               0         Tower X translation velocity, node 4, m/s
         77    3.102E-02                                 F               0         Tower Y translation velocity, node 4, m/s
         78    6.161E-03                                 F               0         Tower Z translation velocity, node 4, m/s
         79   -1.086E-03                                 F               0         Tower X translation velocity, node 5, m/s
         80    3.771E-02                                 F               0         Tower Y translation velocity, node 5, m/s
         81    6.501E-03                                 F               0         Tower Z translation velocity, node 5, m/s
         82   -1.333E-03                                 F               0         Tower X translation velocity, node 6, m/s
         83    4.441E-02                                 F               0         Tower Y translation velocity, node 6, m/s
         84    6.840E-03                                 F               0         Tower Z translation velocity, node 6, m/s
         85   -1.581E-03                                 F               0         Tower X translation velocity, node 7, m/s
         86    5.110E-02                                 F               0         Tower Y translation velocity, node 7, m/s
         87    7.180E-03                                 F               0         Tower Z translation velocity, node 7, m/s
         88   -1.828E-03                                 F               0         Tower X translation velocity, node 8, m/s
         89    5.780E-02                                 F               0         Tower Y translation velocity, node 8, m/s
         90    7.519E-03                                 F               0         Tower Z translation velocity, node 8, m/s
         91   -2.076E-03                                 F               0         Tower X translation velocity, node 9, m/s
         92    6.449E-02                                 F               0         Tower Y translation velocity, node 9, m/s
         93    7.859E-03                                 F               0         Tower Z translation velocity, node 9, m/s
         94   -2.324E-03                                 F               0         Tower X translation velocity, node 10, m/s
         95    7.119E-02                                 F               0         Tower Y translation velocity, node 10, m/s
         96    8.198E-03                                 F               0         Tower Z translation velocity, node 10, m/s
         97   -2.571E-03                                 F               0         Tower X translation velocity, node 11, m/s
         98    7.788E-02                                 F               0         Tower Y translation velocity, node 11, m/s
         99    8.538E-03                                 F               0         Tower Z translation velocity, node 11, m/s
        100    3.510E+01                                 F               0         Hub X translation displacement, node 1, m
        101   -7.058E+00                                 F               0         Hub Y translation displacement, node 1, m
        102   -4.756E-01                                 F               0         Hub Z translation displacement, node 1, m
        103    9.674E-01,  1.978E-02, -2.525E-01         F               0         Hub X orientation angle, node 1, rad
        104    3.217E-02,  9.793E-01,  2.000E-01         F               0         Hub Y orientation angle, node 1, rad
        105    2.513E-01, -2.016E-01,  9.467E-01         F               0         Hub Z orientation angle, node 1, rad
        106    1.012E+00                                 F               0         Hub X rotation velocity, node 1, rad/s
        107    2.068E-02                                 F               0         Hub Y rotation velocity, node 1, rad/s
        108   -2.642E-01                                 F               0         Hub Z rotation velocity, node 1, rad/s
        109    9.660E-01, -9.276E-03, -2.583E-01         F               0         Blade root 1 X orientation angle, node 1, rad
        110    6.086E-02,  9.794E-01,  1.924E-01         F               0         Blade root 1 Y orientation angle, node 1, rad
        111    2.513E-01, -2.016E-01,  9.467E-01         F               0         Blade root 1 Z orientation angle, node 1, rad
        112    9.610E-01,  3.948E-02, -2.738E-01         F               0         Blade root 2 X orientation angle, node 1, rad
        113    2.301E-01, -6.633E-01,  7.121E-01         F               0         Blade root 2 Y orientation angle, node 1, rad
        114   -1.535E-01, -7.473E-01, -6.465E-01         F               0         Blade root 2 Z orientation angle, node 1, rad
        115    9.739E-01,  2.912E-02, -2.251E-01         F               0         Blade root 3 X orientation angle, node 1, rad
        116   -2.049E-01, -3.144E-01, -9.269E-01         F               0         Blade root 3 Y orientation angle, node 1, rad
        117   -9.776E-02,  9.489E-01, -3.002E-01         F               0         Blade root 3 Z orientation angle, node 1, rad
        118    3.591E+01                                 F               0         Blade 1 X translation displacement, node 1, m
        119   -8.175E+00                                 F               0         Blade 1 Y translation displacement, node 1, m
        120   -7.406E-01                                 F               0         Blade 1 Z translation displacement, node 1, m
        121    3.611E+01                                 F               0         Blade 1 X translation displacement, node 2, m
        122   -8.444E+00                                 F               0         Blade 1 Y translation displacement, node 2, m
        123   -8.044E-01                                 F               0         Blade 1 Z translation displacement, node 2, m
        124    3.877E+01                                 F               0         Blade 1 X translation displacement, node 3, m
        125   -1.210E+01                                 F               0         Blade 1 Y translation displacement, node 3, m
        126   -1.672E+00                                 F               0         Blade 1 Z translation displacement, node 3, m
        127    3.934E+01                                 F               0         Blade 1 X translation displacement, node 4, m
        128   -1.288E+01                                 F               0         Blade 1 Y translation displacement, node 4, m
        129   -1.857E+00                                 F               0         Blade 1 Z translation displacement, node 4, m
        130    3.991E+01                                 F               0         Blade 1 X translation displacement, node 5, m
        131   -1.366E+01                                 F               0         Blade 1 Y translation displacement, node 5, m
        132   -2.042E+00                                 F               0         Blade 1 Z translation displacement, node 5, m
        133    4.047E+01                                 F               0         Blade 1 X translation displacement, node 6, m
        134   -1.444E+01                                 F               0         Blade 1 Y translation displacement, node 6, m
        135   -2.227E+00                                 F               0         Blade 1 Z translation displacement, node 6, m
        136    4.104E+01                                 F               0         Blade 1 X translation displacement, node 7, m
        137   -1.522E+01                                 F               0         Blade 1 Y translation displacement, node 7, m
        138   -2.412E+00                                 F               0         Blade 1 Z translation displacement, node 7, m
        139    4.161E+01                                 F               0         Blade 1 X translation displacement, node 8, m
        140   -1.600E+01                                 F               0         Blade 1 Y translation displacement, node 8, m
        141   -2.597E+00                                 F               0         Blade 1 Z translation displacement, node 8, m
        142    4.218E+01                                 F               0         Blade 1 X translation displacement, node 9, m
        143   -1.678E+01                                 F               0         Blade 1 Y translation displacement, node 9, m
        144   -2.782E+00                                 F               0         Blade 1 Z translation displacement, node 9, m
        145    4.274E+01                                 F               0         Blade 1 X translation displacement, node 10, m
        146   -1.756E+01                                 F               0         Blade 1 Y translation displacement, node 10, m
        147   -2.967E+00                                 F               0         Blade 1 Z translation displacement, node 10, m
        148    4.331E+01                                 F               0         Blade 1 X translation displacement, node 11, m
        149   -1.834E+01                                 F               0         Blade 1 Y translation displacement, node 11, m
        150   -3.152E+00                                 F               0         Blade 1 Z translation displacement, node 11, m
        151    4.388E+01                                 F               0         Blade 1 X translation displacement, node 12, m
        152   -1.912E+01                                 F               0         Blade 1 Y translation displacement, node 12, m
        153   -3.337E+00                                 F               0         Blade 1 Z translation displacement, node 12, m
        154    4.445E+01                                 F               0         Blade 1 X translation displacement, node 13, m
        155   -1.990E+01                                 F               0         Blade 1 Y translation displacement, node 13, m
        156   -3.522E+00                                 F               0         Blade 1 Z translation displacement, node 13, m
        157    4.501E+01                                 F               0         Blade 1 X translation displacement, node 14, m
        158   -2.068E+01                                 F               0         Blade 1 Y translation displacement, node 14, m
        159   -3.707E+00                                 F               0         Blade 1 Z translation displacement, node 14, m
        160    4.558E+01                                 F               0         Blade 1 X translation displacement, node 15, m
        161   -2.146E+01                                 F               0         Blade 1 Y translation displacement, node 15, m
        162   -3.892E+00                                 F               0         Blade 1 Z translation displacement, node 15, m
        163    4.615E+01                                 F               0         Blade 1 X translation displacement, node 16, m
        164   -2.224E+01                                 F               0         Blade 1 Y translation displacement, node 16, m
        165   -4.077E+00                                 F               0         Blade 1 Z translation displacement, node 16, m
        166    4.672E+01                                 F               0         Blade 1 X translation displacement, node 17, m
        167   -2.302E+01                                 F               0         Blade 1 Y translation displacement, node 17, m
        168   -4.262E+00                                 F               0         Blade 1 Z translation displacement, node 17, m
        169    4.728E+01                                 F               0         Blade 1 X translation displacement, node 18, m
        170   -2.380E+01                                 F               0         Blade 1 Y translation displacement, node 18, m
        171   -4.447E+00                                 F               0         Blade 1 Z translation displacement, node 18, m
        172    4.785E+01                                 F               0         Blade 1 X translation displacement, node 19, m
        173   -2.458E+01                                 F               0         Blade 1 Y translation displacement, node 19, m
        174   -4.632E+00                                 F               0         Blade 1 Z translation displacement, node 19, m
        175    4.842E+01                                 F               0         Blade 1 X translation displacement, node 20, m
        176   -2.536E+01                                 F               0         Blade 1 Y translation displacement, node 20, m
        177   -4.817E+00                                 F               0         Blade 1 Z translation displacement, node 20, m
        178    4.899E+01                                 F               0         Blade 1 X translation displacement, node 21, m
        179   -2.614E+01                                 F               0         Blade 1 Y translation displacement, node 21, m
        180   -5.002E+00                                 F               0         Blade 1 Z translation displacement, node 21, m
        181    4.955E+01                                 F               0         Blade 1 X translation displacement, node 22, m
        182   -2.692E+01                                 F               0         Blade 1 Y translation displacement, node 22, m
        183   -5.187E+00                                 F               0         Blade 1 Z translation displacement, node 22, m
        184    5.012E+01                                 F               0         Blade 1 X translation displacement, node 23, m
        185   -2.769E+01                                 F               0         Blade 1 Y translation displacement, node 23, m
        186   -5.372E+00                                 F               0         Blade 1 Z translation displacement, node 23, m
        187    5.069E+01                                 F               0         Blade 1 X translation displacement, node 24, m
        188   -2.847E+01                                 F               0         Blade 1 Y translation displacement, node 24, m
        189   -5.556E+00                                 F               0         Blade 1 Z translation displacement, node 24, m
        190    5.126E+01                                 F               0         Blade 1 X translation displacement, node 25, m
        191   -2.925E+01                                 F               0         Blade 1 Y translation displacement, node 25, m
        192   -5.741E+00                                 F               0         Blade 1 Z translation displacement, node 25, m
        193    5.182E+01                                 F               0         Blade 1 X translation displacement, node 26, m
        194   -3.003E+01                                 F               0         Blade 1 Y translation displacement, node 26, m
        195   -5.926E+00                                 F               0         Blade 1 Z translation displacement, node 26, m
        196    5.239E+01                                 F               0         Blade 1 X translation displacement, node 27, m
        197   -3.081E+01                                 F               0         Blade 1 Y translation displacement, node 27, m
        198   -6.111E+00                                 F               0         Blade 1 Z translation displacement, node 27, m
        199    5.287E+01                                 F               0         Blade 1 X translation displacement, node 28, m
        200   -3.147E+01                                 F               0         Blade 1 Y translation displacement, node 28, m
        201   -6.268E+00                                 F               0         Blade 1 Z translation displacement, node 28, m
        202    8.320E-01, -4.549E-01, -3.177E-01         F               0         Blade 1 X orientation angle, node 1, rad
        203    4.947E-01,  8.674E-01,  5.341E-02         F               0         Blade 1 Y orientation angle, node 1, rad
        204    2.513E-01, -2.016E-01,  9.467E-01         F               0         Blade 1 Z orientation angle, node 1, rad
        205    8.320E-01, -4.549E-01, -3.177E-01         F               0         Blade 1 X orientation angle, node 2, rad
        206    4.947E-01,  8.674E-01,  5.341E-02         F               0         Blade 1 Y orientation angle, node 2, rad
        207    2.513E-01, -2.016E-01,  9.467E-01         F               0         Blade 1 Z orientation angle, node 2, rad
        208    9.255E-01, -2.363E-01, -2.959E-01         F               0         Blade 1 X orientation angle, node 3, rad
        209    2.834E-01,  9.505E-01,  1.272E-01         F               0         Blade 1 Y orientation angle, node 3, rad
        210    2.513E-01, -2.016E-01,  9.467E-01         F               0         Blade 1 Z orientation angle, node 3, rad
        211    9.366E-01, -1.960E-01, -2.903E-01         F               0         Blade 1 X orientation angle, node 4, rad
        212    2.441E-01,  9.597E-01,  1.396E-01         F               0         Blade 1 Y orientation angle, node 4, rad
        213    2.513E-01, -2.016E-01,  9.467E-01         F               0         Blade 1 Z orientation angle, node 4, rad
        214    9.442E-01, -1.641E-01, -2.855E-01         F               0         Blade 1 X orientation angle, node 5, rad
        215    2.129E-01,  9.656E-01,  1.491E-01         F               0         Blade 1 Y orientation angle, node 5, rad
        216    2.513E-01, -2.016E-01,  9.467E-01         F               0         Blade 1 Z orientation angle, node 5, rad
        217    9.495E-01, -1.384E-01, -2.815E-01         F               0         Blade 1 X orientation angle, node 6, rad
        218    1.878E-01,  9.696E-01,  1.566E-01         F               0         Blade 1 Y orientation angle, node 6, rad
        219    2.513E-01, -2.016E-01,  9.467E-01         F               0         Blade 1 Z orientation angle, node 6, rad
        220    9.534E-01, -1.172E-01, -2.780E-01         F               0         Blade 1 X orientation angle, node 7, rad
        221    1.670E-01,  9.724E-01,  1.627E-01         F               0         Blade 1 Y orientation angle, node 7, rad
        222    2.513E-01, -2.016E-01,  9.467E-01         F               0         Blade 1 Z orientation angle, node 7, rad
        223    9.563E-01, -9.954E-02, -2.750E-01         F               0         Blade 1 X orientation angle, node 8, rad
        224    1.497E-01,  9.744E-01,  1.677E-01         F               0         Blade 1 Y orientation angle, node 8, rad
        225    2.513E-01, -2.016E-01,  9.467E-01         F               0         Blade 1 Z orientation angle, node 8, rad
        226    9.585E-01, -8.456E-02, -2.724E-01         F               0         Blade 1 X orientation angle, node 9, rad
        227    1.350E-01,  9.758E-01,  1.719E-01         F               0         Blade 1 Y orientation angle, node 9, rad