
Linearized model: Predictions were generated on 20-Sep-2023 at 07:59:10 using OpenFAST, compiled as a 64-bit application using single precision at commit v3.5.0
 linked with  NWTC Subroutine Library; ElastoDyn; HydroDyn; MoorDyn (v2.0.0, 2022-12-08)

Description from the FAST input file: Generated with AeroElasticSE FAST driver

Simulation information:
   Simulation time:                   100.0000 s
   Rotor Speed:                         0.0000 rad/s
   Azimuth:                             0.0000 rad
   Wind Speed:                          0.0000 m/s
   Number of continuous states:        20
   Number of discrete states:           0
   Number of constraint states:         0
   Number of inputs:                  277
   Number of outputs:                  17
   Jacobians included in this file?    No

Order of continuous states:
   Row/Column Operating Point                     Rotating Frame? Derivative Order Description
   ---------- ---------------                     --------------- ---------------- -----------
          1    3.191E+00                                 F               2         ED Platform horizontal surge translation DOF (internal DOF index = DOF_Sg), m
          2   -1.987E+00                                 F               2         ED Platform horizontal sway translation DOF (internal DOF index = DOF_Sw), m
          3    1.956E-02                                 F               2         ED Platform vertical heave translation DOF (internal DOF index = DOF_Hv), m
          4   -7.489E-03                                 F               2         ED Platform roll tilt rotation DOF (internal DOF index = DOF_R), rad
          5   -3.249E-03                                 F               2         ED Platform pitch tilt rotation DOF (internal DOF index = DOF_P), rad
          6    3.560E-04                                 F               2         ED Platform yaw rotation DOF (internal DOF index = DOF_Y), rad
          7   -1.565E-01                                 F               2         ED 1st tower fore-aft bending mode DOF (internal DOF index = DOF_TFA1), m
          8   -2.404E-02                                 F               2         ED 1st tower side-to-side bending mode DOF (internal DOF index = DOF_TSS1), m
          9    1.584E-03                                 F               2         ED 2nd tower fore-aft bending mode DOF (internal DOF index = DOF_TFA2), m
         10   -9.801E-06                                 F               2         ED 2nd tower side-to-side bending mode DOF (internal DOF index = DOF_TSS2), m
         11    1.353E-04                                 F               2         ED First time derivative of Platform horizontal surge translation DOF (internal DOF index = DOF_Sg), m/s
         12   -1.516E-04                                 F               2         ED First time derivative of Platform horizontal sway translation DOF (internal DOF index = DOF_Sw), m/s
         13   -2.355E-06                                 F               2         ED First time derivative of Platform vertical heave translation DOF (internal DOF index = DOF_Hv), m/s
         14    3.941E-07                                 F               2         ED First time derivative of Platform roll tilt rotation DOF (internal DOF index = DOF_R), rad/s
         15    2.726E-07                                 F               2         ED First time derivative of Platform pitch tilt rotation DOF (internal DOF index = DOF_P), rad/s
         16   -1.208E-06                                 F               2         ED First time derivative of Platform yaw rotation DOF (internal DOF index = DOF_Y), rad/s
         17   -2.639E-05                                 F               2         ED First time derivative of 1st tower fore-aft bending mode DOF (internal DOF index = DOF_TFA1), m/s
         18    2.450E-06                                 F               2         ED First time derivative of 1st tower side-to-side bending mode DOF (internal DOF index = DOF_TSS1), m/s
         19    1.081E-08                                 F               2         ED First time derivative of 2nd tower fore-aft bending mode DOF (internal DOF index = DOF_TFA2), m/s
         20    7.068E-10                                 F               2         ED First time derivative of 2nd tower side-to-side bending mode DOF (internal DOF index = DOF_TSS2), m/s

Order of continuous state derivatives:
   Row/Column Operating Point                     Rotating Frame? Derivative Order Description
   ---------- ---------------                     --------------- ---------------- -----------
          1    1.353E-04                                 F               2         First time derivative of ED Platform horizontal surge translation DOF (internal DOF index = DOF_Sg), m/s
          2   -1.516E-04                                 F               2         First time derivative of ED Platform horizontal sway translation DOF (internal DOF index = DOF_Sw), m/s
          3   -2.355E-06                                 F               2         First time derivative of ED Platform vertical heave translation DOF (internal DOF index = DOF_Hv), m/s
          4    3.941E-07                                 F               2         First time derivative of ED Platform roll tilt rotation DOF (internal DOF index = DOF_R), rad/s
          5    2.726E-07                                 F               2         First time derivative of ED Platform pitch tilt rotation DOF (internal DOF index = DOF_P), rad/s
          6   -1.208E-06                                 F               2         First time derivative of ED Platform yaw rotation DOF (internal DOF index = DOF_Y), rad/s
          7   -2.639E-05                                 F               2         First time derivative of ED 1st tower fore-aft bending mode DOF (internal DOF index = DOF_TFA1), m/s
          8    2.450E-06                                 F               2         First time derivative of ED 1st tower side-to-side bending mode DOF (internal DOF index = DOF_TSS1), m/s
          9    1.081E-08                                 F               2         First time derivative of ED 2nd tower fore-aft bending mode DOF (internal DOF index = DOF_TFA2), m/s
         10    7.068E-10                                 F               2         First time derivative of ED 2nd tower side-to-side bending mode DOF (internal DOF index = DOF_TSS2), m/s
         11   -1.340E-05                                 F               2         First time derivative of ED First time derivative of Platform horizontal surge translation DOF (internal DOF index = DOF_Sg), m/s/s
         12    7.728E-06                                 F               2         First time derivative of ED First time derivative of Platform horizontal sway translation DOF (internal DOF index = DOF_Sw), m/s/s
         13   -9.614E-06                                 F               2         First time derivative of ED First time derivative of Platform vertical heave translation DOF (internal DOF index = DOF_Hv), m/s/s
         14    4.946E-08                                 F               2         First time derivative of ED First time derivative of Platform roll tilt rotation DOF (internal DOF index = DOF_R), rad/s/s
         15   -7.372E-08                                 F               2         First time derivative of ED First time derivative of Platform pitch tilt rotation DOF (internal DOF index = DOF_P), rad/s/s
         16   -1.562E-08                                 F               2         First time derivative of ED First time derivative of Platform yaw rotation DOF (internal DOF index = DOF_Y), rad/s/s
         17    1.788E-05                                 F               2         First time derivative of ED First time derivative of 1st tower fore-aft bending mode DOF (internal DOF index = DOF_TFA1), m/s/s
         18    3.156E-07                                 F               2         First time derivative of ED First time derivative of 1st tower side-to-side bending mode DOF (internal DOF index = DOF_TSS1), m/s/s
         19    1.726E-10                                 F               2         First time derivative of ED First time derivative of 2nd tower fore-aft bending mode DOF (internal DOF index = DOF_TFA2), m/s/s
         20   -3.344E-09                                 F               2         First time derivative of ED First time derivative of 2nd tower side-to-side bending mode DOF (internal DOF index = DOF_TSS2), m/s/s

Order of inputs:
     Column   Operating Point                     Rotating Frame? Derivative Order Description
   ---------- ---------------                     --------------- ---------------- -----------
          1    0.000E+00                                 F               0         ED Blade 1 X force, node 1, N
          2    0.000E+00                                 F               0         ED Blade 1 Y force, node 1, N
          3    0.000E+00                                 F               0         ED Blade 1 Z force, node 1, N
          4    0.000E+00                                 F               0         ED Blade 1 X force, node 2, N
          5    0.000E+00                                 F               0         ED Blade 1 Y force, node 2, N
          6    0.000E+00                                 F               0         ED Blade 1 Z force, node 2, N
          7    0.000E+00                                 F               0         ED Blade 1 X moment, node 1, Nm
          8    0.000E+00                                 F               0         ED Blade 1 Y moment, node 1, Nm
          9    0.000E+00                                 F               0         ED Blade 1 Z moment, node 1, Nm
         10    0.000E+00                                 F               0         ED Blade 1 X moment, node 2, Nm
         11    0.000E+00                                 F               0         ED Blade 1 Y moment, node 2, Nm
         12    0.000E+00                                 F               0         ED Blade 1 Z moment, node 2, Nm
         13    0.000E+00                                 F               0         ED Blade 2 X force, node 1, N
         14    0.000E+00                                 F               0         ED Blade 2 Y force, node 1, N
         15    0.000E+00                                 F               0         ED Blade 2 Z force, node 1, N
         16    0.000E+00                                 F               0         ED Blade 2 X force, node 2, N
         17    0.000E+00                                 F               0         ED Blade 2 Y force, node 2, N
         18    0.000E+00                                 F               0         ED Blade 2 Z force, node 2, N
         19    0.000E+00                                 F               0         ED Blade 2 X moment, node 1, Nm
         20    0.000E+00                                 F               0         ED Blade 2 Y moment, node 1, Nm
         21    0.000E+00                                 F               0         ED Blade 2 Z moment, node 1, Nm
         22    0.000E+00                                 F               0         ED Blade 2 X moment, node 2, Nm
         23    0.000E+00                                 F               0         ED Blade 2 Y moment, node 2, Nm
         24    0.000E+00                                 F               0         ED Blade 2 Z moment, node 2, Nm
         25    0.000E+00                                 F               0         ED Blade 3 X force, node 1, N
         26    0.000E+00                                 F               0         ED Blade 3 Y force, node 1, N
         27    0.000E+00                                 F               0         ED Blade 3 Z force, node 1, N
         28    0.000E+00                                 F               0         ED Blade 3 X force, node 2, N
         29    0.000E+00                                 F               0         ED Blade 3 Y force, node 2, N
         30    0.000E+00                                 F               0         ED Blade 3 Z force, node 2, N
         31    0.000E+00                                 F               0         ED Blade 3 X moment, node 1, Nm
         32    0.000E+00                                 F               0         ED Blade 3 Y moment, node 1, Nm
         33    0.000E+00                                 F               0         ED Blade 3 Z moment, node 1, Nm
         34    0.000E+00                                 F               0         ED Blade 3 X moment, node 2, Nm
         35    0.000E+00                                 F               0         ED Blade 3 Y moment, node 2, Nm
         36    0.000E+00                                 F               0         ED Blade 3 Z moment, node 2, Nm
         37   -2.376E+02                                 F               0         ED Platform X force, node 1, N
         38    1.585E+02                                 F               0         ED Platform Y force, node 1, N
         39    1.972E+08                                 F               0         ED Platform Z force, node 1, N
         40    1.863E+07                                 F               0         ED Platform X moment, node 1, Nm
         41    8.477E+06                                 F               0         ED Platform Y moment, node 1, Nm
         42   -1.802E+02                                 F               0         ED Platform Z moment, node 1, Nm
         43    0.000E+00                                 F               0         ED Tower X force, node 1, N
         44    0.000E+00                                 F               0         ED Tower Y force, node 1, N
         45    0.000E+00                                 F               0         ED Tower Z force, node 1, N
         46    0.000E+00                                 F               0         ED Tower X force, node 2, N
         47    0.000E+00                                 F               0         ED Tower Y force, node 2, N
         48    0.000E+00                                 F               0         ED Tower Z force, node 2, N
         49    0.000E+00                                 F               0         ED Tower X force, node 3, N
         50    0.000E+00                                 F               0         ED Tower Y force, node 3, N
         51    0.000E+00                                 F               0         ED Tower Z force, node 3, N
         52    0.000E+00                                 F               0         ED Tower X force, node 4, N
         53    0.000E+00                                 F               0         ED Tower Y force, node 4, N
         54    0.000E+00                                 F               0         ED Tower Z force, node 4, N
         55    0.000E+00                                 F               0         ED Tower X force, node 5, N
         56    0.000E+00                                 F               0         ED Tower Y force, node 5, N
         57    0.000E+00                                 F               0         ED Tower Z force, node 5, N
         58    0.000E+00                                 F               0         ED Tower X force, node 6, N
         59    0.000E+00                                 F               0         ED Tower Y force, node 6, N
         60    0.000E+00                                 F               0         ED Tower Z force, node 6, N
         61    0.000E+00                                 F               0         ED Tower X force, node 7, N
         62    0.000E+00                                 F               0         ED Tower Y force, node 7, N
         63    0.000E+00                                 F               0         ED Tower Z force, node 7, N
         64    0.000E+00                                 F               0         ED Tower X force, node 8, N
         65    0.000E+00                                 F               0         ED Tower Y force, node 8, N
         66    0.000E+00                                 F               0         ED Tower Z force, node 8, N
         67    0.000E+00                                 F               0         ED Tower X force, node 9, N
         68    0.000E+00                                 F               0         ED Tower Y force, node 9, N
         69    0.000E+00                                 F               0         ED Tower Z force, node 9, N
         70    0.000E+00                                 F               0         ED Tower X force, node 10, N
         71    0.000E+00                                 F               0         ED Tower Y force, node 10, N
         72    0.000E+00                                 F               0         ED Tower Z force, node 10, N
         73    0.000E+00                                 F               0         ED Tower X force, node 11, N
         74    0.000E+00                                 F               0         ED Tower Y force, node 11, N
         75    0.000E+00                                 F               0         ED Tower Z force, node 11, N
         76    0.000E+00                                 F               0         ED Tower X force, node 12, N
         77    0.000E+00                                 F               0         ED Tower Y force, node 12, N
         78    0.000E+00                                 F               0         ED Tower Z force, node 12, N
         79    0.000E+00                                 F               0         ED Tower X force, node 13, N
         80    0.000E+00                                 F               0         ED Tower Y force, node 13, N
         81    0.000E+00                                 F               0         ED Tower Z force, node 13, N
         82    0.000E+00                                 F               0         ED Tower X force, node 14, N
         83    0.000E+00                                 F               0         ED Tower Y force, node 14, N
         84    0.000E+00                                 F               0         ED Tower Z force, node 14, N
         85    0.000E+00                                 F               0         ED Tower X force, node 15, N
         86    0.000E+00                                 F               0         ED Tower Y force, node 15, N
         87    0.000E+00                                 F               0         ED Tower Z force, node 15, N
         88    0.000E+00                                 F               0         ED Tower X force, node 16, N
         89    0.000E+00                                 F               0         ED Tower Y force, node 16, N
         90    0.000E+00                                 F               0         ED Tower Z force, node 16, N
         91    0.000E+00                                 F               0         ED Tower X force, node 17, N
         92    0.000E+00                                 F               0         ED Tower Y force, node 17, N
         93    0.000E+00                                 F               0         ED Tower Z force, node 17, N
         94    0.000E+00                                 F               0         ED Tower X force, node 18, N
         95    0.000E+00                                 F               0         ED Tower Y force, node 18, N
         96    0.000E+00                                 F               0         ED Tower Z force, node 18, N
         97    0.000E+00                                 F               0         ED Tower X force, node 19, N
         98    0.000E+00                                 F               0         ED Tower Y force, node 19, N
         99    0.000E+00                                 F               0         ED Tower Z force, node 19, N
        100    0.000E+00                                 F               0         ED Tower X force, node 20, N
        101    0.000E+00                                 F               0         ED Tower Y force, node 20, N
        102    0.000E+00                                 F               0         ED Tower Z force, node 20, N
        103    0.000E+00                                 F               0         ED Tower X force, node 21, N
        104    0.000E+00                                 F               0         ED Tower Y force, node 21, N
        105    0.000E+00                                 F               0         ED Tower Z force, node 21, N
        106    0.000E+00                                 F               0         ED Tower X moment, node 1, Nm
        107    0.000E+00                                 F               0         ED Tower Y moment, node 1, Nm
        108    0.000E+00                                 F               0         ED Tower Z moment, node 1, Nm
        109    0.000E+00                                 F               0         ED Tower X moment, node 2, Nm
        110    0.000E+00                                 F               0         ED Tower Y moment, node 2, Nm
        111    0.000E+00                                 F               0         ED Tower Z moment, node 2, Nm
        112    0.000E+00                                 F               0         ED Tower X moment, node 3, Nm
        113    0.000E+00                                 F               0         ED Tower Y moment, node 3, Nm
        114    0.000E+00                                 F               0         ED Tower Z moment, node 3, Nm
        115    0.000E+00                                 F               0         ED Tower X moment, node 4, Nm
        116    0.000E+00                                 F               0         ED Tower Y moment, node 4, Nm
        117    0.000E+00                                 F               0         ED Tower Z moment, node 4, Nm
        118    0.000E+00                                 F               0         ED Tower X moment, node 5, Nm
        119    0.000E+00                                 F               0         ED Tower Y moment, node 5, Nm
        120    0.000E+00                                 F               0         ED Tower Z moment, node 5, Nm
        121    0.000E+00                                 F               0         ED Tower X moment, node 6, Nm
        122    0.000E+00                                 F               0         ED Tower Y moment, node 6, Nm
        123    0.000E+00                                 F               0         ED Tower Z moment, node 6, Nm
        124    0.000E+00                                 F               0         ED Tower X moment, node 7, Nm
        125    0.000E+00                                 F               0         ED Tower Y moment, node 7, Nm
        126    0.000E+00                                 F               0         ED Tower Z moment, node 7, Nm
        127    0.000E+00                                 F               0         ED Tower X moment, node 8, Nm
        128    0.000E+00                                 F               0         ED Tower Y moment, node 8, Nm
        129    0.000E+00                                 F               0         ED Tower Z moment, node 8, Nm
        130    0.000E+00                                 F               0         ED Tower X moment, node 9, Nm
        131    0.000E+00                                 F               0         ED Tower Y moment, node 9, Nm
        132    0.000E+00                                 F               0         ED Tower Z moment, node 9, Nm
        133    0.000E+00                                 F               0         ED Tower X moment, node 10, Nm
        134    0.000E+00                                 F               0         ED Tower Y moment, node 10, Nm
        135    0.000E+00                                 F               0         ED Tower Z moment, node 10, Nm
        136    0.000E+00                                 F               0         ED Tower X moment, node 11, Nm
        137    0.000E+00                                 F               0         ED Tower Y moment, node 11, Nm
        138    0.000E+00                                 F               0         ED Tower Z moment, node 11, Nm
        139    0.000E+00                                 F               0         ED Tower X moment, node 12, Nm
        140    0.000E+00                                 F               0         ED Tower Y moment, node 12, Nm
        141    0.000E+00                                 F               0         ED Tower Z moment, node 12, Nm
        142    0.000E+00                                 F               0         ED Tower X moment, node 13, Nm
        143    0.000E+00                                 F               0         ED Tower Y moment, node 13, Nm
        144    0.000E+00                                 F               0         ED Tower Z moment, node 13, Nm
        145    0.000E+00                                 F               0         ED Tower X moment, node 14, Nm
        146    0.000E+00                                 F               0         ED Tower Y moment, node 14, Nm
        147    0.000E+00                                 F               0         ED Tower Z moment, node 14, Nm
        148    0.000E+00                                 F               0         ED Tower X moment, node 15, Nm
        149    0.000E+00                                 F               0         ED Tower Y moment, node 15, Nm
        150    0.000E+00                                 F               0         ED Tower Z moment, node 15, Nm
        151    0.000E+00                                 F               0         ED Tower X moment, node 16, Nm
        152    0.000E+00                                 F               0         ED Tower Y moment, node 16, Nm
        153    0.000E+00                                 F               0         ED Tower Z moment, node 16, Nm
        154    0.000E+00                                 F               0         ED Tower X moment, node 17, Nm
        155    0.000E+00                                 F               0         ED Tower Y moment, node 17, Nm
        156    0.000E+00                                 F               0         ED Tower Z moment, node 17, Nm
        157    0.000E+00                                 F               0         ED Tower X moment, node 18, Nm
        158    0.000E+00                                 F               0         ED Tower Y moment, node 18, Nm
        159    0.000E+00                                 F               0         ED Tower Z moment, node 18, Nm
        160    0.000E+00                                 F               0         ED Tower X moment, node 19, Nm
        161    0.000E+00                                 F               0         ED Tower Y moment, node 19, Nm
        162    0.000E+00                                 F               0         ED Tower Z moment, node 19, Nm
        163    0.000E+00                                 F               0         ED Tower X moment, node 20, Nm
        164    0.000E+00                                 F               0         ED Tower Y moment, node 20, Nm
        165    0.000E+00                                 F               0         ED Tower Z moment, node 20, Nm
        166    0.000E+00                                 F               0         ED Tower X moment, node 21, Nm
        167    0.000E+00                                 F               0         ED Tower Y moment, node 21, Nm
        168    0.000E+00                                 F               0         ED Tower Z moment, node 21, Nm
        169    0.000E+00                                 F               0         ED Hub X force, node 1, N
        170    0.000E+00                                 F               0         ED Hub Y force, node 1, N
        171    0.000E+00                                 F               0         ED Hub Z force, node 1, N
        172    0.000E+00                                 F               0         ED Hub X moment, node 1, Nm
        173    0.000E+00                                 F               0         ED Hub Y moment, node 1, Nm
        174    0.000E+00                                 F               0         ED Hub Z moment, node 1, Nm
        175    0.000E+00                                 F               0         ED Nacelle X force, node 1, N
        176    0.000E+00                                 F               0         ED Nacelle Y force, node 1, N
        177    0.000E+00                                 F               0         ED Nacelle Z force, node 1, N
        178    0.000E+00                                 F               0         ED Nacelle X moment, node 1, Nm
        179    0.000E+00                                 F               0         ED Nacelle Y moment, node 1, Nm
        180    0.000E+00                                 F               0         ED Nacelle Z moment, node 1, Nm
        181    0.000E+00                                 T               0         ED Blade 1 pitch command, rad
        182    0.000E+00                                 T               0         ED Blade 2 pitch command, rad
        183    0.000E+00                                 T               0         ED Blade 3 pitch command, rad
        184    0.000E+00                                 F               0         ED Yaw moment, Nm
        185    0.000E+00                                 F               0         ED Generator torque, Nm
        186    0.000E+00                                 F               0         ED Extended input: collective blade-pitch command, rad
        187    3.191E+00                                 F               0         HD WAMIT X translation displacement, node 1, m