
Linearized model: Predictions were generated on 06-Feb-2024 at 08:44:08 using OpenFAST, compiled as a 64-bit application using single precision at commit v3.5.1
 linked with  NWTC Subroutine Library; ElastoDyn; InflowWind; AeroDyn; ServoDyn; HydroDyn; MAP++ (<1.20.10>, <Oct-20-2023>)

Description from the FAST input file: CCT-9 Campign 4 model. Input files to be run with OpenFAST 3.5.0. GitHub branch from Lu Wang (https://github.com/luwang00/openfast/tree/dev) compiled on March 7, 2023.

Simulation information:
   Simulation time:                  2506.9750 s
   Rotor Speed:                         0.8851 rad/s
   Azimuth:                             3.0437 rad
   Wind Speed:                         10.0000 m/s
   Number of continuous states:        22
   Number of discrete states:           0
   Number of constraint states:         0
   Number of inputs:                 1890
   Number of outputs:                  19
   Jacobians included in this file?    No

Order of continuous states:
   Row/Column Operating Point                     Rotating Frame? Derivative Order Description
   ---------- ---------------                     --------------- ---------------- -----------
          1    1.247E+01                                 F               2         Platform horizontal surge translation DOF (internal DOF index = DOF_Sg), m
          2    2.666E-02                                 F               2         Platform horizontal sway translation DOF (internal DOF index = DOF_Sw), m
          3   -1.282E-01                                 F               2         Platform vertical heave translation DOF (internal DOF index = DOF_Hv), m
          4   -3.185E-03                                 F               2         Platform roll tilt rotation DOF (internal DOF index = DOF_R), rad
          5    7.855E-02                                 F               2         Platform pitch tilt rotation DOF (internal DOF index = DOF_P), rad
          6    1.226E-03                                 F               2         Platform yaw rotation DOF (internal DOF index = DOF_Y), rad
          7    6.079E-01                                 F               2         1st tower fore-aft bending mode DOF (internal DOF index = DOF_TFA1), m
          8   -1.976E-02                                 F               2         1st tower side-to-side bending mode DOF (internal DOF index = DOF_TSS1), m
          9    1.435E-03                                 F               2         2nd tower fore-aft bending mode DOF (internal DOF index = DOF_TFA2), m
         10   -8.105E-06                                 F               2         2nd tower side-to-side bending mode DOF (internal DOF index = DOF_TSS2), m
         11    1.473E+00                                 F               2         Variable speed generator DOF (internal DOF index = DOF_GeAz), rad
         12    3.278E-04                                 F               2         First time derivative of Platform horizontal surge translation DOF (internal DOF index = DOF_Sg), m/s
         13    2.978E-05                                 F               2         First time derivative of Platform horizontal sway translation DOF (internal DOF index = DOF_Sw), m/s
         14   -1.282E-03                                 F               2         First time derivative of Platform vertical heave translation DOF (internal DOF index = DOF_Hv), m/s
         15    1.501E-05                                 F               2         First time derivative of Platform roll tilt rotation DOF (internal DOF index = DOF_R), rad/s
         16    2.261E-05                                 F               2         First time derivative of Platform pitch tilt rotation DOF (internal DOF index = DOF_P), rad/s
         17   -1.426E-04                                 F               2         First time derivative of Platform yaw rotation DOF (internal DOF index = DOF_Y), rad/s
         18   -2.240E-03                                 F               2         First time derivative of 1st tower fore-aft bending mode DOF (internal DOF index = DOF_TFA1), m/s
         19    3.728E-04                                 F               2         First time derivative of 1st tower side-to-side bending mode DOF (internal DOF index = DOF_TSS1), m/s
         20    1.244E-06                                 F               2         First time derivative of 2nd tower fore-aft bending mode DOF (internal DOF index = DOF_TFA2), m/s
         21    1.282E-07                                 F               2         First time derivative of 2nd tower side-to-side bending mode DOF (internal DOF index = DOF_TSS2), m/s
         22    8.851E-01                                 F               2         First time derivative of Variable speed generator DOF (internal DOF index = DOF_GeAz), rad/s

Order of continuous state derivatives:
   Row/Column Operating Point                     Rotating Frame? Derivative Order Description
   ---------- ---------------                     --------------- ---------------- -----------
          1    3.278E-04                                 F               2         First time derivative of Platform horizontal surge translation DOF (internal DOF index = DOF_Sg), m/s
          2    2.978E-05                                 F               2         First time derivative of Platform horizontal sway translation DOF (internal DOF index = DOF_Sw), m/s
          3   -1.282E-03                                 F               2         First time derivative of Platform vertical heave translation DOF (internal DOF index = DOF_Hv), m/s
          4    1.501E-05                                 F               2         First time derivative of Platform roll tilt rotation DOF (internal DOF index = DOF_R), rad/s
          5    2.261E-05                                 F               2         First time derivative of Platform pitch tilt rotation DOF (internal DOF index = DOF_P), rad/s
          6   -1.426E-04                                 F               2         First time derivative of Platform yaw rotation DOF (internal DOF index = DOF_Y), rad/s
          7   -2.240E-03                                 F               2         First time derivative of 1st tower fore-aft bending mode DOF (internal DOF index = DOF_TFA1), m/s
          8    3.728E-04                                 F               2         First time derivative of 1st tower side-to-side bending mode DOF (internal DOF index = DOF_TSS1), m/s
          9    1.244E-06                                 F               2         First time derivative of 2nd tower fore-aft bending mode DOF (internal DOF index = DOF_TFA2), m/s
         10    1.282E-07                                 F               2         First time derivative of 2nd tower side-to-side bending mode DOF (internal DOF index = DOF_TSS2), m/s
         11    8.851E-01                                 F               2         First time derivative of Variable speed generator DOF (internal DOF index = DOF_GeAz), rad/s
         12   -5.081E-05                                 F               2         First time derivative of First time derivative of Platform horizontal surge translation DOF (internal DOF index = DOF_Sg), m/s/s
         13   -7.823E-04                                 F               2         First time derivative of First time derivative of Platform horizontal sway translation DOF (internal DOF index = DOF_Sw), m/s/s
         14   -6.507E-04                                 F               2         First time derivative of First time derivative of Platform vertical heave translation DOF (internal DOF index = DOF_Hv), m/s/s
         15    1.601E-04                                 F               2         First time derivative of First time derivative of Platform roll tilt rotation DOF (internal DOF index = DOF_R), rad/s/s
         16   -1.567E-06                                 F               2         First time derivative of First time derivative of Platform pitch tilt rotation DOF (internal DOF index = DOF_P), rad/s/s
         17   -4.549E-05                                 F               2         First time derivative of First time derivative of Platform yaw rotation DOF (internal DOF index = DOF_Y), rad/s/s
         18    3.042E-05                                 F               2         First time derivative of First time derivative of 1st tower fore-aft bending mode DOF (internal DOF index = DOF_TFA1), m/s/s
         19   -4.270E-03                                 F               2         First time derivative of First time derivative of 1st tower side-to-side bending mode DOF (internal DOF index = DOF_TSS1), m/s/s
         20   -1.071E-06                                 F               2         First time derivative of First time derivative of 2nd tower fore-aft bending mode DOF (internal DOF index = DOF_TFA2), m/s/s
         21    3.583E-06                                 F               2         First time derivative of First time derivative of 2nd tower side-to-side bending mode DOF (internal DOF index = DOF_TSS2), m/s/s
         22    3.895E-05                                 F               2         First time derivative of First time derivative of Variable speed generator DOF (internal DOF index = DOF_GeAz), rad/s/s

Order of inputs:
     Column   Operating Point                     Rotating Frame? Derivative Order Description
   ---------- ---------------                     --------------- ---------------- -----------
          1    7.473E+01                                 F               0         Blade 1 X force, node 1, N
          2   -8.355E+01                                 F               0         Blade 1 Y force, node 1, N
          3   -5.715E+00                                 F               0         Blade 1 Z force, node 1, N
          4    3.180E+02                                 F               0         Blade 1 X force, node 2, N
          5   -1.553E+02                                 F               0         Blade 1 Y force, node 2, N
          6   -4.509E+01                                 F               0         Blade 1 Z force, node 2, N
          7    4.174E+02                                 F               0         Blade 1 X force, node 3, N
          8   -9.185E+01                                 F               0         Blade 1 Y force, node 3, N
          9   -7.080E+01                                 F               0         Blade 1 Z force, node 3, N
         10    5.508E+02                                 F               0         Blade 1 X force, node 4, N
         11   -4.747E+01                                 F               0         Blade 1 Y force, node 4, N
         12   -1.011E+02                                 F               0         Blade 1 Z force, node 4, N
         13    6.842E+02                                 F               0         Blade 1 X force, node 5, N
         14   -3.089E+00                                 F               0         Blade 1 Y force, node 5, N
         15   -1.313E+02                                 F               0         Blade 1 Z force, node 5, N
         16    8.176E+02                                 F               0         Blade 1 X force, node 6, N
         17    4.129E+01                                 F               0         Blade 1 Y force, node 6, N
         18   -1.616E+02                                 F               0         Blade 1 Z force, node 6, N
         19    9.510E+02                                 F               0         Blade 1 X force, node 7, N
         20    8.567E+01                                 F               0         Blade 1 Y force, node 7, N
         21   -1.919E+02                                 F               0         Blade 1 Z force, node 7, N
         22    1.084E+03                                 F               0         Blade 1 X force, node 8, N
         23    1.301E+02                                 F               0         Blade 1 Y force, node 8, N
         24   -2.222E+02                                 F               0         Blade 1 Z force, node 8, N
         25    1.218E+03                                 F               0         Blade 1 X force, node 9, N
         26    1.744E+02                                 F               0         Blade 1 Y force, node 9, N
         27   -2.524E+02                                 F               0         Blade 1 Z force, node 9, N
         28    1.351E+03                                 F               0         Blade 1 X force, node 10, N
         29    2.188E+02                                 F               0         Blade 1 Y force, node 10, N
         30   -2.827E+02                                 F               0         Blade 1 Z force, node 10, N
         31    1.485E+03                                 F               0         Blade 1 X force, node 11, N
         32    2.632E+02                                 F               0         Blade 1 Y force, node 11, N
         33   -3.130E+02                                 F               0         Blade 1 Z force, node 11, N
         34    1.618E+03                                 F               0         Blade 1 X force, node 12, N
         35    3.076E+02                                 F               0         Blade 1 Y force, node 12, N
         36   -3.432E+02                                 F               0         Blade 1 Z force, node 12, N
         37    1.751E+03                                 F               0         Blade 1 X force, node 13, N
         38    3.520E+02                                 F               0         Blade 1 Y force, node 13, N
         39   -3.735E+02                                 F               0         Blade 1 Z force, node 13, N
         40    1.885E+03                                 F               0         Blade 1 X force, node 14, N
         41    3.963E+02                                 F               0         Blade 1 Y force, node 14, N
         42   -4.038E+02                                 F               0         Blade 1 Z force, node 14, N
         43    2.018E+03                                 F               0         Blade 1 X force, node 15, N
         44    4.407E+02                                 F               0         Blade 1 Y force, node 15, N
         45   -4.340E+02                                 F               0         Blade 1 Z force, node 15, N
         46    2.152E+03                                 F               0         Blade 1 X force, node 16, N
         47    4.851E+02                                 F               0         Blade 1 Y force, node 16, N
         48   -4.643E+02                                 F               0         Blade 1 Z force, node 16, N
         49    2.651E+03                                 F               0         Blade 1 X force, node 17, N
         50    6.117E+02                                 F               0         Blade 1 Y force, node 17, N
         51   -5.736E+02                                 F               0         Blade 1 Z force, node 17, N
         52    2.038E+03                                 F               0         Blade 1 X force, node 18, N
         53    4.543E+02                                 F               0         Blade 1 Y force, node 18, N
         54   -4.393E+02                                 F               0         Blade 1 Z force, node 18, N
         55    2.521E+03                                 F               0         Blade 1 X force, node 19, N
         56    5.338E+02                                 F               0         Blade 1 Y force, node 19, N
         57   -5.404E+02                                 F               0         Blade 1 Z force, node 19, N
         58    2.165E+03                                 F               0         Blade 1 X force, node 20, N
         59    4.365E+02                                 F               0         Blade 1 Y force, node 20, N
         60   -4.618E+02                                 F               0         Blade 1 Z force, node 20, N
         61    3.222E+03                                 F               0         Blade 1 X force, node 21, N
         62    6.136E+02                                 F               0         Blade 1 Y force, node 21, N
         63   -6.836E+02                                 F               0         Blade 1 Z force, node 21, N
         64    2.865E+03                                 F               0         Blade 1 X force, node 22, N
         65    5.149E+02                                 F               0         Blade 1 Y force, node 22, N
         66   -6.047E+02                                 F               0         Blade 1 Z force, node 22, N
         67    2.962E+03                                 F               0         Blade 1 X force, node 23, N
         68    5.049E+02                                 F               0         Blade 1 Y force, node 23, N
         69   -6.223E+02                                 F               0         Blade 1 Z force, node 23, N
         70    3.112E+03                                 F               0         Blade 1 X force, node 24, N
         71    5.036E+02                                 F               0         Blade 1 Y force, node 24, N
         72   -6.510E+02                                 F               0         Blade 1 Z force, node 24, N
         73    3.207E+03                                 F               0         Blade 1 X force, node 25, N
         74    4.927E+02                                 F               0         Blade 1 Y force, node 25, N
         75   -6.682E+02                                 F               0         Blade 1 Z force, node 25, N
         76    3.320E+03                                 F               0         Blade 1 X force, node 26, N
         77    4.846E+02                                 F               0         Blade 1 Y force, node 26, N
         78   -6.891E+02                                 F               0         Blade 1 Z force, node 26, N
         79    3.999E+03                                 F               0         Blade 1 X force, node 27, N
         80    5.533E+02                                 F               0         Blade 1 Y force, node 27, N
         81   -8.270E+02                                 F               0         Blade 1 Z force, node 27, N
         82    2.979E+03                                 F               0         Blade 1 X force, node 28, N
         83    3.911E+02                                 F               0         Blade 1 Y force, node 28, N
         84   -6.139E+02                                 F               0         Blade 1 Z force, node 28, N
         85    3.659E+03                                 F               0         Blade 1 X force, node 29, N
         86    4.594E+02                                 F               0         Blade 1 Y force, node 29, N
         87   -7.517E+02                                 F               0         Blade 1 Z force, node 29, N
         88    3.124E+03                                 F               0         Blade 1 X force, node 30, N
         89    3.754E+02                                 F               0         Blade 1 Y force, node 30, N
         90   -6.401E+02                                 F               0         Blade 1 Z force, node 30, N
         91    4.532E+03                                 F               0         Blade 1 X force, node 31, N
         92    5.173E+02                                 F               0         Blade 1 Y force, node 31, N
         93   -9.257E+02                                 F               0         Blade 1 Z force, node 31, N
         94    3.997E+03                                 F               0         Blade 1 X force, node 32, N
         95    4.328E+02                                 F               0         Blade 1 Y force, node 32, N
         96   -8.139E+02                                 F               0         Blade 1 Z force, node 32, N
         97    4.108E+03                                 F               0         Blade 1 X force, node 33, N
         98    4.237E+02                                 F               0         Blade 1 Y force, node 33, N
         99   -8.344E+02                                 F               0         Blade 1 Z force, node 33, N
        100    4.221E+03                                 F               0         Blade 1 X force, node 34, N
        101    4.145E+02                                 F               0         Blade 1 Y force, node 34, N
        102   -8.551E+02                                 F               0         Blade 1 Z force, node 34, N
        103    4.333E+03                                 F               0         Blade 1 X force, node 35, N
        104    4.052E+02                                 F               0         Blade 1 Y force, node 35, N
        105   -8.758E+02                                 F               0         Blade 1 Z force, node 35, N
        106    4.444E+03                                 F               0         Blade 1 X force, node 36, N
        107    3.957E+02                                 F               0         Blade 1 Y force, node 36, N
        108   -8.962E+02                                 F               0         Blade 1 Z force, node 36, N
        109    5.332E+03                                 F               0         Blade 1 X force, node 37, N
        110    4.506E+02                                 F               0         Blade 1 Y force, node 37, N
        111   -1.073E+03                                 F               0         Blade 1 Z force, node 37, N
        112    3.893E+03                                 F               0         Blade 1 X force, node 38, N
        113    3.126E+02                                 F               0         Blade 1 Y force, node 38, N
        114   -7.816E+02                                 F               0         Blade 1 Z force, node 38, N
        115    4.782E+03                                 F               0         Blade 1 X force, node 39, N
        116    3.674E+02                                 F               0         Blade 1 Y force, node 39, N
        117   -9.582E+02                                 F               0         Blade 1 Z force, node 39, N
        118    4.085E+03                                 F               0         Blade 1 X force, node 40, N
        119    3.004E+02                                 F               0         Blade 1 Y force, node 40, N
        120   -8.173E+02                                 F               0         Blade 1 Z force, node 40, N
        121    5.816E+03                                 F               0         Blade 1 X force, node 41, N
        122    4.059E+02                                 F               0         Blade 1 Y force, node 41, N
        123   -1.161E+03                                 F               0         Blade 1 Z force, node 41, N
        124    5.118E+03                                 F               0         Blade 1 X force, node 42, N
        125    3.385E+02                                 F               0         Blade 1 Y force, node 42, N
        126   -1.020E+03                                 F               0         Blade 1 Z force, node 42, N
        127    5.228E+03                                 F               0         Blade 1 X force, node 43, N
        128    3.286E+02                                 F               0         Blade 1 Y force, node 43, N
        129   -1.040E+03                                 F               0         Blade 1 Z force, node 43, N
        130    5.368E+03                                 F               0         Blade 1 X force, node 44, N
        131    3.203E+02                                 F               0         Blade 1 Y force, node 44, N
        132   -1.066E+03                                 F               0         Blade 1 Z force, node 44, N
        133    5.422E+03                                 F               0         Blade 1 X force, node 45, N
        134    3.070E+02                                 F               0         Blade 1 Y force, node 45, N
        135   -1.075E+03                                 F               0         Blade 1 Z force, node 45, N
        136    5.561E+03                                 F               0         Blade 1 X force, node 46, N
        137    2.987E+02                                 F               0         Blade 1 Y force, node 46, N
        138   -1.101E+03                                 F               0         Blade 1 Z force, node 46, N
        139    6.668E+03                                 F               0         Blade 1 X force, node 47, N
        140    3.383E+02                                 F               0         Blade 1 Y force, node 47, N
        141   -1.318E+03                                 F               0         Blade 1 Z force, node 47, N
        142    4.787E+03                                 F               0         Blade 1 X force, node 48, N
        143    2.292E+02                                 F               0         Blade 1 Y force, node 48, N
        144   -9.449E+02                                 F               0         Blade 1 Z force, node 48, N
        145    5.893E+03                                 F               0         Blade 1 X force, node 49, N
        146    2.686E+02                                 F               0         Blade 1 Y force, node 49, N
        147   -1.162E+03                                 F               0         Blade 1 Z force, node 49, N
        148    5.048E+03                                 F               0         Blade 1 X force, node 50, N
        149    2.186E+02                                 F               0         Blade 1 Y force, node 50, N
        150   -9.940E+02                                 F               0         Blade 1 Z force, node 50, N
        151    7.070E+03                                 F               0         Blade 1 X force, node 51, N
        152    2.882E+02                                 F               0         Blade 1 Y force, node 51, N
        153   -1.390E+03                                 F               0         Blade 1 Z force, node 51, N
        154    6.226E+03                                 F               0         Blade 1 X force, node 52, N
        155    2.383E+02                                 F               0         Blade 1 Y force, node 52, N
        156   -1.223E+03                                 F               0         Blade 1 Z force, node 52, N
        157    6.338E+03                                 F               0         Blade 1 X force, node 53, N
        158    2.283E+02                                 F               0         Blade 1 Y force, node 53, N
        159   -1.243E+03                                 F               0         Blade 1 Z force, node 53, N
        160    6.521E+03                                 F               0         Blade 1 X force, node 54, N
        161    2.206E+02                                 F               0         Blade 1 Y force, node 54, N
        162   -1.278E+03                                 F               0         Blade 1 Z force, node 54, N
        163    6.491E+03                                 F               0         Blade 1 X force, node 55, N
        164    2.058E+02                                 F               0         Blade 1 Y force, node 55, N
        165   -1.270E+03                                 F               0         Blade 1 Z force, node 55, N
        166    6.673E+03                                 F               0         Blade 1 X force, node 56, N
        167    1.980E+02                                 F               0         Blade 1 Y force, node 56, N
        168   -1.305E+03                                 F               0         Blade 1 Z force, node 56, N
        169    8.012E+03                                 F               0         Blade 1 X force, node 57, N
        170    2.208E+02                                 F               0         Blade 1 Y force, node 57, N
        171   -1.565E+03                                 F               0         Blade 1 Z force, node 57, N
        172    5.667E+03                                 F               0         Blade 1 X force, node 58, N
        173    1.447E+02                                 F               0         Blade 1 Y force, node 58, N
        174   -1.105E+03                                 F               0         Blade 1 Z force, node 58, N
        175    7.007E+03                                 F               0         Blade 1 X force, node 59, N
        176    1.674E+02                                 F               0         Blade 1 Y force, node 59, N
        177   -1.366E+03                                 F               0         Blade 1 Z force, node 59, N
        178    6.028E+03                                 F               0         Blade 1 X force, node 60, N
        179    1.342E+02                                 F               0         Blade 1 Y force, node 60, N
        180   -1.174E+03                                 F               0         Blade 1 Z force, node 60, N
        181    8.319E+03                                 F               0         Blade 1 X force, node 61, N
        182    1.699E+02                                 F               0         Blade 1 Y force, node 61, N
        183   -1.618E+03                                 F               0         Blade 1 Z force, node 61, N
        184    7.337E+03                                 F               0         Blade 1 X force, node 62, N