
Linearized model: Predictions were generated on 06-Feb-2024 at 08:44:08 using OpenFAST, compiled as a 64-bit application using single precision at commit v3.5.1
 linked with  NWTC Subroutine Library; ElastoDyn; InflowWind; AeroDyn; ServoDyn; HydroDyn; MAP++ (<1.20.10>, <Oct-20-2023>)

Description from the FAST input file: CCT-9 Campign 4 model. Input files to be run with OpenFAST 3.5.0. GitHub branch from Lu Wang (https://github.com/luwang00/openfast/tree/dev) compiled on March 7, 2023.

Simulation information:
   Simulation time:                  2505.7750 s
   Rotor Speed:                         0.8851 rad/s
   Azimuth:                             1.9815 rad
   Wind Speed:                         10.0000 m/s
   Number of continuous states:         0
   Number of discrete states:           0
   Number of constraint states:         0
   Number of inputs:                   37
   Number of outputs:                   7
   Jacobians included in this file?    No

Order of inputs:
     Column   Operating Point                     Rotating Frame? Derivative Order Description
   ---------- ---------------                     --------------- ---------------- -----------
          1    1.247E+01                                 F               0         WAMIT X translation displacement, node 1, m
          2    2.622E-02                                 F               0         WAMIT Y translation displacement, node 1, m
          3   -1.271E-01                                 F               0         WAMIT Z translation displacement, node 1, m
          4    9.969E-01,  1.239E-03, -7.830E-02         F               0         WAMIT X orientation angle, node 1, rad
          5   -1.481E-03,  1.000E+00, -3.035E-03         F               0         WAMIT Y orientation angle, node 1, rad
          6    7.829E-02,  3.142E-03,  9.969E-01         F               0         WAMIT Z orientation angle, node 1, rad
          7    7.345E-05                                 F               0         WAMIT X translation velocity, node 1, m/s
          8    5.283E-04                                 F               0         WAMIT Y translation velocity, node 1, m/s
          9   -5.563E-04                                 F               0         WAMIT Z translation velocity, node 1, m/s
         10   -1.505E-04                                 F               0         WAMIT X rotation velocity, node 1, rad/s
         11    5.739E-06                                 F               0         WAMIT Y rotation velocity, node 1, rad/s
         12   -8.785E-05                                 F               0         WAMIT Z rotation velocity, node 1, rad/s
         13   -4.094E-07                                 F               0         WAMIT X translation acceleration, node 1, m/s^2
         14   -1.105E-04                                 F               0         WAMIT Y translation acceleration, node 1, m/s^2
         15   -5.341E-04                                 F               0         WAMIT Z translation acceleration, node 1, m/s^2
         16    1.177E-04                                 F               0         WAMIT X rotation acceleration, node 1, rad/s^2
         17    2.404E-06                                 F               0         WAMIT Y rotation acceleration, node 1, rad/s^2
         18   -4.722E-05                                 F               0         WAMIT Z rotation acceleration, node 1, rad/s^2
         19    1.247E+01                                 F               0         Platform-RefPt X translation displacement, node 1, m
         20    2.622E-02                                 F               0         Platform-RefPt Y translation displacement, node 1, m
         21   -1.271E-01                                 F               0         Platform-RefPt Z translation displacement, node 1, m
         22    9.969E-01,  1.239E-03, -7.830E-02         F               0         Platform-RefPt X orientation angle, node 1, rad
         23   -1.481E-03,  1.000E+00, -3.035E-03         F               0         Platform-RefPt Y orientation angle, node 1, rad
         24    7.829E-02,  3.142E-03,  9.969E-01         F               0         Platform-RefPt Z orientation angle, node 1, rad
         25    7.345E-05                                 F               0         Platform-RefPt X translation velocity, node 1, m/s
         26    5.283E-04                                 F               0         Platform-RefPt Y translation velocity, node 1, m/s
         27   -5.563E-04                                 F               0         Platform-RefPt Z translation velocity, node 1, m/s
         28   -1.505E-04                                 F               0         Platform-RefPt X rotation velocity, node 1, rad/s
         29    5.739E-06                                 F               0         Platform-RefPt Y rotation velocity, node 1, rad/s
         30   -8.785E-05                                 F               0         Platform-RefPt Z rotation velocity, node 1, rad/s
         31   -4.094E-07                                 F               0         Platform-RefPt X translation acceleration, node 1, m/s^2
         32   -1.105E-04                                 F               0         Platform-RefPt Y translation acceleration, node 1, m/s^2
         33   -5.341E-04                                 F               0         Platform-RefPt Z translation acceleration, node 1, m/s^2
         34    1.177E-04                                 F               0         Platform-RefPt X rotation acceleration, node 1, rad/s^2
         35    2.404E-06                                 F               0         Platform-RefPt Y rotation acceleration, node 1, rad/s^2
         36   -4.722E-05                                 F               0         Platform-RefPt Z rotation acceleration, node 1, rad/s^2
         37    0.000E+00                                 F               0         Extended input: wave elevation at platform ref point, m

Order of outputs:
        Row   Operating Point                     Rotating Frame? Derivative Order Description
   ---------- ---------------                     --------------- ---------------- -----------
          1    0.000E+00                                 F               0         Wave1Elev, (m)
          2   -8.532E+04                                 F               0         HydroFxi, (N)
          3   -1.061E+04                                 F               0         HydroFyi, (N)
          4    2.039E+08                                 F               0         HydroFzi, (N)
          5    5.332E+06                                 F               0         HydroMxi, (N-m)
          6   -1.676E+08                                 F               0         HydroMyi, (N-m)
          7    9.258E+05                                 F               0         HydroMzi, (N-m)


Linearized state matrices:

D: 7 x 37
    0.000E+00  0.000E+00  0.000E+00  0.000E+00  0.000E+00  0.000E+00  0.000E+00  0.000E+00  0.000E+00  0.000E+00  0.000E+00  0.000E+00  0.000E+00  0.000E+00  0.000E+00  0.000E+00  0.000E+00  0.000E+00  0.000E+00  0.000E+00  0.000E+00  0.000E+00  0.000E+00  0.000E+00  0.000E+00  0.000E+00  0.000E+00  0.000E+00  0.000E+00  0.000E+00  0.000E+00  0.000E+00  0.000E+00  0.000E+00  0.000E+00  0.000E+00  0.000E+00
   -6.860E+03  0.000E+00  0.000E+00  0.000E+00  0.000E+00  0.000E+00 -2.822E+05  0.000E+00  0.000E+00  0.000E+00  0.000E+00  0.000E+00 -9.381E+06  0.000E+00  1.998E+01  0.000E+00  9.827E+07  0.000E+00  0.000E+00  0.000E+00  0.000E+00  0.000E+00  0.000E+00  0.000E+00  0.000E+00  0.000E+00  0.000E+00  0.000E+00  0.000E+00  0.000E+00  0.000E+00  0.000E+00  0.000E+00  0.000E+00  0.000E+00  0.000E+00  0.000E+00
    0.000E+00  0.000E+00  0.000E+00  0.000E+00  0.000E+00  0.000E+00  0.000E+00 -2.822E+05  0.000E+00  0.000E+00  0.000E+00  0.000E+00  0.000E+00 -9.381E+06  0.000E+00 -9.827E+07  0.000E+00  1.786E+03  0.000E+00  0.000E+00  0.000E+00  0.000E+00  0.000E+00  0.000E+00  0.000E+00  0.000E+00  0.000E+00  0.000E+00  0.000E+00  0.000E+00  0.000E+00  0.000E+00  0.000E+00  0.000E+00  0.000E+00  0.000E+00  0.000E+00
    0.000E+00  0.000E+00 -4.395E+06  0.000E+00  3.667E+03  0.000E+00  0.000E+00  0.000E+00 -8.063E+05  0.000E+00  0.000E+00  0.000E+00  6.548E+01  0.000E+00 -2.413E+07  0.000E+00  1.765E+04  0.000E+00  0.000E+00  0.000E+00  0.000E+00  0.000E+00  0.000E+00  0.000E+00  0.000E+00  0.000E+00  0.000E+00  0.000E+00  0.000E+00  0.000E+00  0.000E+00  0.000E+00  0.000E+00  0.000E+00  0.000E+00  0.000E+00  0.000E+00
    0.000E+00  2.039E+08  1.062E+04 -2.134E+09  0.000E+00  8.882E+04  0.000E+00  0.000E+00  0.000E+00 -2.783E+09  0.000E+00  0.000E+00  0.000E+00 -9.820E+07  0.000E+00 -1.132E+10  0.000E+00  5.302E+04  0.000E+00 -2.039E+08 -1.062E+04  0.000E+00  0.000E+00  0.000E+00  0.000E+00  0.000E+00  0.000E+00  0.000E+00  0.000E+00  0.000E+00  0.000E+00  0.000E+00  0.000E+00  0.000E+00  0.000E+00  0.000E+00  0.000E+00
   -2.039E+08  0.000E+00 -8.133E+04  0.000E+00 -2.134E+09  0.000E+00  0.000E+00  0.000E+00  0.000E+00  0.000E+00 -2.783E+09  0.000E+00  9.820E+07  0.000E+00  1.938E+04  0.000E+00 -1.132E+10  0.000E+00  2.039E+08  0.000E+00  8.526E+04  0.000E+00  0.000E+00  0.000E+00  0.000E+00  0.000E+00  0.000E+00  0.000E+00  0.000E+00  0.000E+00  0.000E+00  0.000E+00  0.000E+00  0.000E+00  0.000E+00  0.000E+00  0.000E+00
   -1.061E+04  8.532E+04  0.000E+00  0.000E+00  0.000E+00  0.000E+00  0.000E+00  0.000E+00  0.000E+00  0.000E+00  0.000E+00 -2.513E+09  0.000E+00  1.554E+03  0.000E+00  4.404E+04  0.000E+00 -1.959E+10  1.061E+04 -8.532E+04  0.000E+00  0.000E+00  0.000E+00  0.000E+00  0.000E+00  0.000E+00  0.000E+00  0.000E+00  0.000E+00  0.000E+00  0.000E+00  0.000E+00  0.000E+00  0.000E+00  0.000E+00  0.000E+00  0.000E+00
