
Linearized model: Predictions were generated on 06-Feb-2024 at 08:44:08 using OpenFAST, compiled as a 64-bit application using single precision at commit v3.5.1
 linked with  NWTC Subroutine Library; ElastoDyn; InflowWind; AeroDyn; ServoDyn; HydroDyn; MAP++ (<1.20.10>, <Oct-20-2023>)

Description from the FAST input file: CCT-9 Campign 4 model. Input files to be run with OpenFAST 3.5.0. GitHub branch from Lu Wang (https://github.com/luwang00/openfast/tree/dev) compiled on March 7, 2023.

Simulation information:
   Simulation time:                  2503.6000 s
   Rotor Speed:                         0.8854 rad/s
   Azimuth:                             0.0561 rad
   Wind Speed:                         10.0000 m/s
   Number of continuous states:        22
   Number of discrete states:           0
   Number of constraint states:         0
   Number of inputs:                 3988
   Number of outputs:                  36
   Jacobians included in this file?    No

Order of continuous states:
   Row/Column Operating Point                     Rotating Frame? Derivative Order Description
   ---------- ---------------                     --------------- ---------------- -----------
          1    1.247E+01                                 F               2         ED Platform horizontal surge translation DOF (internal DOF index = DOF_Sg), m
          2    2.470E-02                                 F               2         ED Platform horizontal sway translation DOF (internal DOF index = DOF_Sw), m
          3   -1.271E-01                                 F               2         ED Platform vertical heave translation DOF (internal DOF index = DOF_Hv), m
          4   -2.502E-03                                 F               2         ED Platform roll tilt rotation DOF (internal DOF index = DOF_R), rad
          5    7.852E-02                                 F               2         ED Platform pitch tilt rotation DOF (internal DOF index = DOF_P), rad
          6    1.430E-03                                 F               2         ED Platform yaw rotation DOF (internal DOF index = DOF_Y), rad
          7    6.083E-01                                 F               2         ED 1st tower fore-aft bending mode DOF (internal DOF index = DOF_TFA1), m
          8   -1.875E-02                                 F               2         ED 1st tower side-to-side bending mode DOF (internal DOF index = DOF_TSS1), m
          9    1.432E-03                                 F               2         ED 2nd tower fore-aft bending mode DOF (internal DOF index = DOF_TFA2), m
         10   -3.501E-06                                 F               2         ED 2nd tower side-to-side bending mode DOF (internal DOF index = DOF_TSS2), m
         11    4.769E+00                                 F               2         ED Variable speed generator DOF (internal DOF index = DOF_GeAz), rad
         12   -8.357E-05                                 F               2         ED First time derivative of Platform horizontal surge translation DOF (internal DOF index = DOF_Sg), m/s
         13    5.211E-04                                 F               2         ED First time derivative of Platform horizontal sway translation DOF (internal DOF index = DOF_Sw), m/s
         14    5.662E-04                                 F               2         ED First time derivative of Platform vertical heave translation DOF (internal DOF index = DOF_Hv), m/s
         15   -3.675E-04                                 F               2         ED First time derivative of Platform roll tilt rotation DOF (internal DOF index = DOF_R), rad/s
         16   -8.596E-06                                 F               2         ED First time derivative of Platform pitch tilt rotation DOF (internal DOF index = DOF_P), rad/s
         17    2.853E-05                                 F               2         ED First time derivative of Platform yaw rotation DOF (internal DOF index = DOF_Y), rad/s
         18    2.258E-03                                 F               2         ED First time derivative of 1st tower fore-aft bending mode DOF (internal DOF index = DOF_TFA1), m/s
         19   -1.728E-03                                 F               2         ED First time derivative of 1st tower side-to-side bending mode DOF (internal DOF index = DOF_TSS1), m/s
         20   -1.610E-06                                 F               2         ED First time derivative of 2nd tower fore-aft bending mode DOF (internal DOF index = DOF_TFA2), m/s
         21   -1.663E-06                                 F               2         ED First time derivative of 2nd tower side-to-side bending mode DOF (internal DOF index = DOF_TSS2), m/s
         22    8.854E-01                                 F               2         ED First time derivative of Variable speed generator DOF (internal DOF index = DOF_GeAz), rad/s

Order of continuous state derivatives:
   Row/Column Operating Point                     Rotating Frame? Derivative Order Description
   ---------- ---------------                     --------------- ---------------- -----------
          1   -8.357E-05                                 F               2         First time derivative of ED Platform horizontal surge translation DOF (internal DOF index = DOF_Sg), m/s
          2    5.211E-04                                 F               2         First time derivative of ED Platform horizontal sway translation DOF (internal DOF index = DOF_Sw), m/s
          3    5.662E-04                                 F               2         First time derivative of ED Platform vertical heave translation DOF (internal DOF index = DOF_Hv), m/s
          4   -3.675E-04                                 F               2         First time derivative of ED Platform roll tilt rotation DOF (internal DOF index = DOF_R), rad/s
          5   -8.596E-06                                 F               2         First time derivative of ED Platform pitch tilt rotation DOF (internal DOF index = DOF_P), rad/s
          6    2.853E-05                                 F               2         First time derivative of ED Platform yaw rotation DOF (internal DOF index = DOF_Y), rad/s
          7    2.258E-03                                 F               2         First time derivative of ED 1st tower fore-aft bending mode DOF (internal DOF index = DOF_TFA1), m/s
          8   -1.728E-03                                 F               2         First time derivative of ED 1st tower side-to-side bending mode DOF (internal DOF index = DOF_TSS1), m/s
          9   -1.610E-06                                 F               2         First time derivative of ED 2nd tower fore-aft bending mode DOF (internal DOF index = DOF_TFA2), m/s
         10   -1.663E-06                                 F               2         First time derivative of ED 2nd tower side-to-side bending mode DOF (internal DOF index = DOF_TSS2), m/s
         11    8.854E-01                                 F               2         First time derivative of ED Variable speed generator DOF (internal DOF index = DOF_GeAz), rad/s
         12    1.940E-04                                 F               2         First time derivative of ED First time derivative of Platform horizontal surge translation DOF (internal DOF index = DOF_Sg), m/s/s
         13    7.377E-04                                 F               2         First time derivative of ED First time derivative of Platform horizontal sway translation DOF (internal DOF index = DOF_Sw), m/s/s
         14   -5.763E-04                                 F               2         First time derivative of ED First time derivative of Platform vertical heave translation DOF (internal DOF index = DOF_Hv), m/s/s
         15    4.220E-05                                 F               2         First time derivative of ED First time derivative of Platform roll tilt rotation DOF (internal DOF index = DOF_R), rad/s/s
         16    1.353E-05                                 F               2         First time derivative of ED First time derivative of Platform pitch tilt rotation DOF (internal DOF index = DOF_P), rad/s/s
         17   -5.264E-05                                 F               2         First time derivative of ED First time derivative of Platform yaw rotation DOF (internal DOF index = DOF_Y), rad/s/s
         18   -2.374E-03                                 F               2         First time derivative of ED First time derivative of 1st tower fore-aft bending mode DOF (internal DOF index = DOF_TFA1), m/s/s
         19    5.830E-03                                 F               2         First time derivative of ED First time derivative of 1st tower side-to-side bending mode DOF (internal DOF index = DOF_TSS1), m/s/s
         20    3.717E-06                                 F               2         First time derivative of ED First time derivative of 2nd tower fore-aft bending mode DOF (internal DOF index = DOF_TFA2), m/s/s
         21   -2.427E-06                                 F               2         First time derivative of ED First time derivative of 2nd tower side-to-side bending mode DOF (internal DOF index = DOF_TSS2), m/s/s
         22   -2.814E-04                                 F               2         First time derivative of ED First time derivative of Variable speed generator DOF (internal DOF index = DOF_GeAz), rad/s/s

Order of inputs:
     Column   Operating Point                     Rotating Frame? Derivative Order Description
   ---------- ---------------                     --------------- ---------------- -----------
          1   -1.080E+01                                 F               0         IfW X-component position of node 1 (hub), m
          2    0.000E+00                                 F               0         IfW Y-component position of node 1 (hub), m
          3    1.497E+02                                 F               0         IfW Z-component position of node 1 (hub), m
          4    1.514E+01                                 F               0         IfW X-component position of node 2 (blade 1, node 1), m
          5    1.191E-01                                 F               0         IfW Y-component position of node 2 (blade 1, node 1), m
          6    1.555E+02                                 F               0         IfW Z-component position of node 2 (blade 1, node 1), m
          7    1.539E+01                                 F               0         IfW X-component position of node 3 (blade 1, node 2), m
          8    4.809E-02                                 F               0         IfW Y-component position of node 3 (blade 1, node 2), m
          9    1.568E+02                                 F               0         IfW Z-component position of node 3 (blade 1, node 2), m
         10    1.882E+01                                 F               0         IfW X-component position of node 4 (blade 1, node 3), m
         11   -9.176E-01                                 F               0         IfW Y-component position of node 4 (blade 1, node 3), m
         12    1.746E+02                                 F               0         IfW Z-component position of node 4 (blade 1, node 3), m
         13    1.955E+01                                 F               0         IfW X-component position of node 5 (blade 1, node 4), m
         14   -1.123E+00                                 F               0         IfW Y-component position of node 5 (blade 1, node 4), m
         15    1.784E+02                                 F               0         IfW Z-component position of node 5 (blade 1, node 4), m
         16    2.028E+01                                 F               0         IfW X-component position of node 6 (blade 1, node 5), m
         17   -1.329E+00                                 F               0         IfW Y-component position of node 6 (blade 1, node 5), m
         18    1.821E+02                                 F               0         IfW Z-component position of node 6 (blade 1, node 5), m
         19    2.101E+01                                 F               0         IfW X-component position of node 7 (blade 1, node 6), m
         20   -1.535E+00                                 F               0         IfW Y-component position of node 7 (blade 1, node 6), m
         21    1.859E+02                                 F               0         IfW Z-component position of node 7 (blade 1, node 6), m
         22    2.174E+01                                 F               0         IfW X-component position of node 8 (blade 1, node 7), m
         23   -1.741E+00                                 F               0         IfW Y-component position of node 8 (blade 1, node 7), m
         24    1.897E+02                                 F               0         IfW Z-component position of node 8 (blade 1, node 7), m
         25    2.247E+01                                 F               0         IfW X-component position of node 9 (blade 1, node 8), m
         26   -1.946E+00                                 F               0         IfW Y-component position of node 9 (blade 1, node 8), m
         27    1.935E+02                                 F               0         IfW Z-component position of node 9 (blade 1, node 8), m
         28    2.320E+01                                 F               0         IfW X-component position of node 10 (blade 1, node 9), m
         29   -2.152E+00                                 F               0         IfW Y-component position of node 10 (blade 1, node 9), m
         30    1.973E+02                                 F               0         IfW Z-component position of node 10 (blade 1, node 9), m
         31    2.393E+01                                 F               0         IfW X-component position of node 11 (blade 1, node 10), m
         32   -2.358E+00                                 F               0         IfW Y-component position of node 11 (blade 1, node 10), m
         33    2.011E+02                                 F               0         IfW Z-component position of node 11 (blade 1, node 10), m
         34    2.466E+01                                 F               0         IfW X-component position of node 12 (blade 1, node 11), m
         35   -2.564E+00                                 F               0         IfW Y-component position of node 12 (blade 1, node 11), m
         36    2.049E+02                                 F               0         IfW Z-component position of node 12 (blade 1, node 11), m
         37    2.539E+01                                 F               0         IfW X-component position of node 13 (blade 1, node 12), m
         38   -2.769E+00                                 F               0         IfW Y-component position of node 13 (blade 1, node 12), m
         39    2.087E+02                                 F               0         IfW Z-component position of node 13 (blade 1, node 12), m
         40    2.612E+01                                 F               0         IfW X-component position of node 14 (blade 1, node 13), m
         41   -2.975E+00                                 F               0         IfW Y-component position of node 14 (blade 1, node 13), m
         42    2.125E+02                                 F               0         IfW Z-component position of node 14 (blade 1, node 13), m
         43    2.685E+01                                 F               0         IfW X-component position of node 15 (blade 1, node 14), m
         44   -3.181E+00                                 F               0         IfW Y-component position of node 15 (blade 1, node 14), m
         45    2.163E+02                                 F               0         IfW Z-component position of node 15 (blade 1, node 14), m
         46    2.758E+01                                 F               0         IfW X-component position of node 16 (blade 1, node 15), m
         47   -3.387E+00                                 F               0         IfW Y-component position of node 16 (blade 1, node 15), m
         48    2.201E+02                                 F               0         IfW Z-component position of node 16 (blade 1, node 15), m
         49    2.831E+01                                 F               0         IfW X-component position of node 17 (blade 1, node 16), m
         50   -3.593E+00                                 F               0         IfW Y-component position of node 17 (blade 1, node 16), m
         51    2.239E+02                                 F               0         IfW Z-component position of node 17 (blade 1, node 16), m
         52    2.904E+01                                 F               0         IfW X-component position of node 18 (blade 1, node 17), m
         53   -3.798E+00                                 F               0         IfW Y-component position of node 18 (blade 1, node 17), m
         54    2.277E+02                                 F               0         IfW Z-component position of node 18 (blade 1, node 17), m
         55    2.977E+01                                 F               0         IfW X-component position of node 19 (blade 1, node 18), m
         56   -4.004E+00                                 F               0         IfW Y-component position of node 19 (blade 1, node 18), m
         57    2.315E+02                                 F               0         IfW Z-component position of node 19 (blade 1, node 18), m
         58    3.050E+01                                 F               0         IfW X-component position of node 20 (blade 1, node 19), m
         59   -4.210E+00                                 F               0         IfW Y-component position of node 20 (blade 1, node 19), m
         60    2.352E+02                                 F               0         IfW Z-component position of node 20 (blade 1, node 19), m
         61    3.123E+01                                 F               0         IfW X-component position of node 21 (blade 1, node 20), m
         62   -4.416E+00                                 F               0         IfW Y-component position of node 21 (blade 1, node 20), m
         63    2.390E+02                                 F               0         IfW Z-component position of node 21 (blade 1, node 20), m
         64    3.196E+01                                 F               0         IfW X-component position of node 22 (blade 1, node 21), m
         65   -4.621E+00                                 F               0         IfW Y-component position of node 22 (blade 1, node 21), m
         66    2.428E+02                                 F               0         IfW Z-component position of node 22 (blade 1, node 21), m
         67    3.269E+01                                 F               0         IfW X-component position of node 23 (blade 1, node 22), m
         68   -4.827E+00                                 F               0         IfW Y-component position of node 23 (blade 1, node 22), m
         69    2.466E+02                                 F               0         IfW Z-component position of node 23 (blade 1, node 22), m
         70    3.342E+01                                 F               0         IfW X-component position of node 24 (blade 1, node 23), m
         71   -5.033E+00                                 F               0         IfW Y-component position of node 24 (blade 1, node 23), m
         72    2.504E+02                                 F               0         IfW Z-component position of node 24 (blade 1, node 23), m
         73    3.415E+01                                 F               0         IfW X-component position of node 25 (blade 1, node 24), m
         74   -5.239E+00                                 F               0         IfW Y-component position of node 25 (blade 1, node 24), m
         75    2.542E+02                                 F               0         IfW Z-component position of node 25 (blade 1, node 24), m
         76    3.488E+01                                 F               0         IfW X-component position of node 26 (blade 1, node 25), m
         77   -5.444E+00                                 F               0         IfW Y-component position of node 26 (blade 1, node 25), m
         78    2.580E+02                                 F               0         IfW Z-component position of node 26 (blade 1, node 25), m
         79    3.561E+01                                 F               0         IfW X-component position of node 27 (blade 1, node 26), m
         80   -5.650E+00                                 F               0         IfW Y-component position of node 27 (blade 1, node 26), m
         81    2.618E+02                                 F               0         IfW Z-component position of node 27 (blade 1, node 26), m
         82    3.634E+01                                 F               0         IfW X-component position of node 28 (blade 1, node 27), m
         83   -5.856E+00                                 F               0         IfW Y-component position of node 28 (blade 1, node 27), m
         84    2.656E+02                                 F               0         IfW Z-component position of node 28 (blade 1, node 27), m
         85    3.696E+01                                 F               0         IfW X-component position of node 29 (blade 1, node 28), m
         86   -6.030E+00                                 F               0         IfW Y-component position of node 29 (blade 1, node 28), m
         87    2.688E+02                                 F               0         IfW Z-component position of node 29 (blade 1, node 28), m
         88    1.353E+01                                 F               0         IfW X-component position of node 30 (blade 2, node 1), m
         89   -4.230E+00                                 F               0         IfW Y-component position of node 30 (blade 2, node 1), m
         90    1.471E+02                                 F               0         IfW Z-component position of node 30 (blade 2, node 1), m
         91    1.339E+01                                 F               0         IfW X-component position of node 31 (blade 2, node 2), m
         92   -5.349E+00                                 F               0         IfW Y-component position of node 31 (blade 2, node 2), m
         93    1.463E+02                                 F               0         IfW Z-component position of node 31 (blade 2, node 2), m
         94    1.153E+01                                 F               0         IfW X-component position of node 32 (blade 2, node 3), m
         95   -2.056E+01                                 F               0         IfW Y-component position of node 32 (blade 2, node 3), m
         96    1.366E+02                                 F               0         IfW Z-component position of node 32 (blade 2, node 3), m
         97    1.114E+01                                 F               0         IfW X-component position of node 33 (blade 2, node 4), m
         98   -2.381E+01                                 F               0         IfW Y-component position of node 33 (blade 2, node 4), m
         99    1.345E+02                                 F               0         IfW Z-component position of node 33 (blade 2, node 4), m
        100    1.074E+01                                 F               0         IfW X-component position of node 34 (blade 2, node 5), m
        101   -2.705E+01                                 F               0         IfW Y-component position of node 34 (blade 2, node 5), m
        102    1.325E+02                                 F               0         IfW Z-component position of node 34 (blade 2, node 5), m
        103    1.035E+01                                 F               0         IfW X-component position of node 35 (blade 2, node 6), m
        104   -3.029E+01                                 F               0         IfW Y-component position of node 35 (blade 2, node 6), m
        105    1.304E+02                                 F               0         IfW Z-component position of node 35 (blade 2, node 6), m
        106    9.953E+00                                 F               0         IfW X-component position of node 36 (blade 2, node 7), m
        107   -3.353E+01                                 F               0         IfW Y-component position of node 36 (blade 2, node 7), m
        108    1.283E+02                                 F               0         IfW Z-component position of node 36 (blade 2, node 7), m
        109    9.558E+00                                 F               0         IfW X-component position of node 37 (blade 2, node 8), m
        110   -3.677E+01                                 F               0         IfW Y-component position of node 37 (blade 2, node 8), m
        111    1.263E+02                                 F               0         IfW Z-component position of node 37 (blade 2, node 8), m
        112    9.162E+00                                 F               0         IfW X-component position of node 38 (blade 2, node 9), m
        113   -4.002E+01                                 F               0         IfW Y-component position of node 38 (blade 2, node 9), m
        114    1.242E+02                                 F               0         IfW Z-component position of node 38 (blade 2, node 9), m
        115    8.767E+00                                 F               0         IfW X-component position of node 39 (blade 2, node 10), m
        116   -4.326E+01                                 F               0         IfW Y-component position of node 39 (blade 2, node 10), m
        117    1.221E+02                                 F               0         IfW Z-component position of node 39 (blade 2, node 10), m
        118    8.371E+00                                 F               0         IfW X-component position of node 40 (blade 2, node 11), m
        119   -4.650E+01                                 F               0         IfW Y-component position of node 40 (blade 2, node 11), m
        120    1.200E+02                                 F               0         IfW Z-component position of node 40 (blade 2, node 11), m
        121    7.976E+00                                 F               0         IfW X-component position of node 41 (blade 2, node 12), m
        122   -4.974E+01                                 F               0         IfW Y-component position of node 41 (blade 2, node 12), m
        123    1.180E+02                                 F               0         IfW Z-component position of node 41 (blade 2, node 12), m
        124    7.580E+00                                 F               0         IfW X-component position of node 42 (blade 2, node 13), m
        125   -5.298E+01                                 F               0         IfW Y-component position of node 42 (blade 2, node 13), m
        126    1.159E+02                                 F               0         IfW Z-component position of node 42 (blade 2, node 13), m
        127    7.185E+00                                 F               0         IfW X-component position of node 43 (blade 2, node 14), m
        128   -5.622E+01                                 F               0         IfW Y-component position of node 43 (blade 2, node 14), m
        129    1.138E+02                                 F               0         IfW Z-component position of node 43 (blade 2, node 14), m
        130    6.790E+00                                 F               0         IfW X-component position of node 44 (blade 2, node 15), m
        131   -5.947E+01                                 F               0         IfW Y-component position of node 44 (blade 2, node 15), m
        132    1.118E+02                                 F               0         IfW Z-component position of node 44 (blade 2, node 15), m
        133    6.394E+00                                 F               0         IfW X-component position of node 45 (blade 2, node 16), m
        134   -6.271E+01                                 F               0         IfW Y-component position of node 45 (blade 2, node 16), m
        135    1.097E+02                                 F               0         IfW Z-component position of node 45 (blade 2, node 16), m
        136    5.999E+00                                 F               0         IfW X-component position of node 46 (blade 2, node 17), m
        137   -6.595E+01                                 F               0         IfW Y-component position of node 46 (blade 2, node 17), m
        138    1.076E+02                                 F               0         IfW Z-component position of node 46 (blade 2, node 17), m
        139    5.603E+00                                 F               0         IfW X-component position of node 47 (blade 2, node 18), m
        140   -6.919E+01                                 F               0         IfW Y-component position of node 47 (blade 2, node 18), m
        141    1.055E+02                                 F               0         IfW Z-component position of node 47 (blade 2, node 18), m
        142    5.208E+00                                 F               0         IfW X-component position of node 48 (blade 2, node 19), m
        143   -7.243E+01                                 F               0         IfW Y-component position of node 48 (blade 2, node 19), m
        144    1.035E+02                                 F               0         IfW Z-component position of node 48 (blade 2, node 19), m