
Linearized model: Predictions were generated on 06-Feb-2024 at 08:44:08 using OpenFAST, compiled as a 64-bit application using single precision at commit v3.5.1
 linked with  NWTC Subroutine Library; ElastoDyn; InflowWind; AeroDyn; ServoDyn; HydroDyn; MAP++ (<1.20.10>, <Oct-20-2023>)

Description from the FAST input file: CCT-9 Campign 4 model. Input files to be run with OpenFAST 3.5.0. GitHub branch from Lu Wang (https://github.com/luwang00/openfast/tree/dev) compiled on March 7, 2023.

Simulation information:
   Simulation time:                  2506.3750 s
   Rotor Speed:                         0.8851 rad/s
   Azimuth:                             2.5126 rad
   Wind Speed:                         10.0000 m/s
   Number of continuous states:         0
   Number of discrete states:           0
   Number of constraint states:         0
   Number of inputs:                 1746
   Number of outputs:                   4
   Jacobians included in this file?    No

Order of inputs:
     Column   Operating Point                     Rotating Frame? Derivative Order Description
   ---------- ---------------                     --------------- ---------------- -----------
          1    1.391E+01                                 F               0         Tower X translation displacement, node 1, m
          2    8.534E-02                                 F               0         Tower Y translation displacement, node 1, m
          3   -1.839E-01                                 F               0         Tower Z translation displacement, node 1, m
          4    1.488E+01                                 F               0         Tower X translation displacement, node 2, m
          5    1.252E-01                                 F               0         Tower Y translation displacement, node 2, m
          6   -2.225E-01                                 F               0         Tower Z translation displacement, node 2, m
          7    1.588E+01                                 F               0         Tower X translation displacement, node 3, m
          8    1.658E-01                                 F               0         Tower Y translation displacement, node 3, m
          9   -2.628E-01                                 F               0         Tower Z translation displacement, node 3, m
         10    1.689E+01                                 F               0         Tower X translation displacement, node 4, m
         11    2.068E-01                                 F               0         Tower Y translation displacement, node 4, m
         12   -3.043E-01                                 F               0         Tower Z translation displacement, node 4, m
         13    1.791E+01                                 F               0         Tower X translation displacement, node 5, m
         14    2.483E-01                                 F               0         Tower Y translation displacement, node 5, m
         15   -3.468E-01                                 F               0         Tower Z translation displacement, node 5, m
         16    1.895E+01                                 F               0         Tower X translation displacement, node 6, m
         17    2.902E-01                                 F               0         Tower Y translation displacement, node 6, m
         18   -3.901E-01                                 F               0         Tower Z translation displacement, node 6, m
         19    1.999E+01                                 F               0         Tower X translation displacement, node 7, m
         20    3.323E-01                                 F               0         Tower Y translation displacement, node 7, m
         21   -4.341E-01                                 F               0         Tower Z translation displacement, node 7, m
         22    2.103E+01                                 F               0         Tower X translation displacement, node 8, m
         23    3.747E-01                                 F               0         Tower Y translation displacement, node 8, m
         24   -4.785E-01                                 F               0         Tower Z translation displacement, node 8, m
         25    2.208E+01                                 F               0         Tower X translation displacement, node 9, m
         26    4.173E-01                                 F               0         Tower Y translation displacement, node 9, m
         27   -5.233E-01                                 F               0         Tower Z translation displacement, node 9, m
         28    2.313E+01                                 F               0         Tower X translation displacement, node 10, m
         29    4.600E-01                                 F               0         Tower Y translation displacement, node 10, m
         30   -5.683E-01                                 F               0         Tower Z translation displacement, node 10, m
         31    2.419E+01                                 F               0         Tower X translation displacement, node 11, m
         32    5.028E-01                                 F               0         Tower Y translation displacement, node 11, m
         33   -6.134E-01                                 F               0         Tower Z translation displacement, node 11, m
         34    9.969E-01,  1.175E-03, -7.830E-02         F               0         Tower X orientation angle, node 1, rad
         35   -1.423E-03,  1.000E+00, -3.106E-03         F               0         Tower Y orientation angle, node 1, rad
         36    7.830E-02,  3.208E-03,  9.969E-01         F               0         Tower Z orientation angle, node 1, rad
         37    9.968E-01,  1.170E-03, -7.984E-02         F               0         Tower X orientation angle, node 2, rad
         38   -1.427E-03,  1.000E+00, -3.153E-03         F               0         Tower Y orientation angle, node 2, rad
         39    7.983E-02,  3.257E-03,  9.968E-01         F               0         Tower Z orientation angle, node 2, rad
         40    9.967E-01,  1.166E-03, -8.118E-02         F               0         Tower X orientation angle, node 3, rad
         41   -1.430E-03,  1.000E+00, -3.196E-03         F               0         Tower Y orientation angle, node 3, rad
         42    8.117E-02,  3.301E-03,  9.967E-01         F               0         Tower Z orientation angle, node 3, rad
         43    9.966E-01,  1.162E-03, -8.230E-02         F               0         Tower X orientation angle, node 4, rad
         44   -1.433E-03,  1.000E+00, -3.233E-03         F               0         Tower Y orientation angle, node 4, rad
         45    8.230E-02,  3.340E-03,  9.966E-01         F               0         Tower Z orientation angle, node 4, rad
         46    9.965E-01,  1.159E-03, -8.322E-02         F               0         Tower X orientation angle, node 5, rad
         47   -1.436E-03,  1.000E+00, -3.265E-03         F               0         Tower Y orientation angle, node 5, rad
         48    8.321E-02,  3.373E-03,  9.965E-01         F               0         Tower Z orientation angle, node 5, rad
         49    9.965E-01,  1.157E-03, -8.394E-02         F               0         Tower X orientation angle, node 6, rad
         50   -1.438E-03,  1.000E+00, -3.292E-03         F               0         Tower Y orientation angle, node 6, rad
         51    8.393E-02,  3.401E-03,  9.965E-01         F               0         Tower Z orientation angle, node 6, rad
         52    9.964E-01,  1.155E-03, -8.447E-02         F               0         Tower X orientation angle, node 7, rad
         53   -1.440E-03,  1.000E+00, -3.313E-03         F               0         Tower Y orientation angle, node 7, rad
         54    8.447E-02,  3.423E-03,  9.964E-01         F               0         Tower Z orientation angle, node 7, rad
         55    9.964E-01,  1.154E-03, -8.486E-02         F               0         Tower X orientation angle, node 8, rad
         56   -1.441E-03,  1.000E+00, -3.330E-03         F               0         Tower Y orientation angle, node 8, rad
         57    8.485E-02,  3.440E-03,  9.964E-01         F               0         Tower Z orientation angle, node 8, rad
         58    9.964E-01,  1.153E-03, -8.512E-02         F               0         Tower X orientation angle, node 9, rad
         59   -1.442E-03,  1.000E+00, -3.342E-03         F               0         Tower Y orientation angle, node 9, rad
         60    8.511E-02,  3.453E-03,  9.964E-01         F               0         Tower Z orientation angle, node 9, rad
         61    9.964E-01,  1.152E-03, -8.527E-02         F               0         Tower X orientation angle, node 10, rad
         62   -1.443E-03,  1.000E+00, -3.350E-03         F               0         Tower Y orientation angle, node 10, rad
         63    8.527E-02,  3.461E-03,  9.964E-01         F               0         Tower Z orientation angle, node 10, rad
         64    9.964E-01,  1.152E-03, -8.535E-02         F               0         Tower X orientation angle, node 11, rad
         65   -1.443E-03,  1.000E+00, -3.354E-03         F               0         Tower Y orientation angle, node 11, rad
         66    8.534E-02,  3.465E-03,  9.963E-01         F               0         Tower Z orientation angle, node 11, rad
         67    4.815E-04                                 F               0         Tower X translation velocity, node 1, m/s
         68    1.621E-03                                 F               0         Tower Y translation velocity, node 1, m/s
         69   -9.260E-04                                 F               0         Tower Z translation velocity, node 1, m/s
         70    6.680E-04                                 F               0         Tower X translation velocity, node 2, m/s
         71    2.424E-03                                 F               0         Tower Y translation velocity, node 2, m/s
         72   -9.434E-04                                 F               0         Tower Z translation velocity, node 2, m/s
         73    8.555E-04                                 F               0         Tower X translation velocity, node 3, m/s
         74    3.185E-03                                 F               0         Tower Y translation velocity, node 3, m/s
         75   -9.611E-04                                 F               0         Tower Z translation velocity, node 3, m/s
         76    1.042E-03                                 F               0         Tower X translation velocity, node 4, m/s
         77    3.913E-03                                 F               0         Tower Y translation velocity, node 4, m/s
         78   -9.788E-04                                 F               0         Tower Z translation velocity, node 4, m/s
         79    1.224E-03                                 F               0         Tower X translation velocity, node 5, m/s
         80    4.611E-03                                 F               0         Tower Y translation velocity, node 5, m/s
         81   -9.963E-04                                 F               0         Tower Z translation velocity, node 5, m/s
         82    1.401E-03                                 F               0         Tower X translation velocity, node 6, m/s
         83    5.284E-03                                 F               0         Tower Y translation velocity, node 6, m/s
         84   -1.013E-03                                 F               0         Tower Z translation velocity, node 6, m/s
         85    1.573E-03                                 F               0         Tower X translation velocity, node 7, m/s
         86    5.935E-03                                 F               0         Tower Y translation velocity, node 7, m/s
         87   -1.030E-03                                 F               0         Tower Z translation velocity, node 7, m/s
         88    1.738E-03                                 F               0         Tower X translation velocity, node 8, m/s
         89    6.568E-03                                 F               0         Tower Y translation velocity, node 8, m/s
         90   -1.046E-03                                 F               0         Tower Z translation velocity, node 8, m/s
         91    1.897E-03                                 F               0         Tower X translation velocity, node 9, m/s
         92    7.187E-03                                 F               0         Tower Y translation velocity, node 9, m/s
         93   -1.062E-03                                 F               0         Tower Z translation velocity, node 9, m/s
         94    2.050E-03                                 F               0         Tower X translation velocity, node 10, m/s
         95    7.795E-03                                 F               0         Tower Y translation velocity, node 10, m/s
         96   -1.077E-03                                 F               0         Tower Z translation velocity, node 10, m/s
         97    2.200E-03                                 F               0         Tower X translation velocity, node 11, m/s
         98    8.397E-03                                 F               0         Tower Y translation velocity, node 11, m/s
         99   -1.092E-03                                 F               0         Tower Z translation velocity, node 11, m/s
        100    2.490E+01                                 F               0         Hub X translation displacement, node 1, m
        101    5.176E-01                                 F               0         Hub Y translation displacement, node 1, m
        102    2.797E-01                                 F               0         Hub Z translation displacement, node 1, m
        103    9.820E-01,  7.833E-04, -1.890E-01         F               0         Hub X orientation angle, node 1, rad
        104    1.124E-01, -8.065E-01,  5.804E-01         F               0         Hub Y orientation angle, node 1, rad
        105   -1.520E-01, -5.912E-01, -7.921E-01         F               0         Hub Z orientation angle, node 1, rad
        106    8.691E-01                                 F               0         Hub X rotation velocity, node 1, rad/s
        107    7.050E-04                                 F               0         Hub Y rotation velocity, node 1, rad/s
        108   -1.674E-01                                 F               0         Hub Z rotation velocity, node 1, rad/s
        109    9.782E-01,  2.471E-02, -2.062E-01         F               0         Blade root 1 X orientation angle, node 1, rad
        110    1.415E-01, -8.061E-01,  5.746E-01         F               0         Blade root 1 Y orientation angle, node 1, rad
        111   -1.520E-01, -5.912E-01, -7.921E-01         F               0         Blade root 1 Z orientation angle, node 1, rad
        112    9.871E-01,  4.009E-03, -1.600E-01         F               0         Blade root 2 X orientation angle, node 1, rad
        113   -1.586E-01, -1.087E-01, -9.813E-01         F               0         Blade root 2 Y orientation angle, node 1, rad
        114   -2.132E-02,  9.941E-01, -1.066E-01         F               0         Blade root 2 Z orientation angle, node 1, rad
        115    9.793E-01, -2.637E-02, -2.007E-01         F               0         Blade root 3 X orientation angle, node 1, rad
        116    1.045E-01,  9.149E-01,  3.899E-01         F               0         Blade root 3 Y orientation angle, node 1, rad
        117    1.733E-01, -4.029E-01,  8.987E-01         F               0         Blade root 3 Z orientation angle, node 1, rad
        118    2.348E+01                                 F               0         Blade 1 X translation displacement, node 1, m
        119   -2.758E+00                                 F               0         Blade 1 Y translation displacement, node 1, m
        120   -9.618E+00                                 F               0         Blade 1 Z translation displacement, node 1, m
        121    2.313E+01                                 F               0         Blade 1 X translation displacement, node 2, m
        122   -3.547E+00                                 F               0         Blade 1 Y translation displacement, node 2, m
        123   -1.200E+01                                 F               0         Blade 1 Z translation displacement, node 2, m
        124    1.848E+01                                 F               0         Blade 1 X translation displacement, node 3, m
        125   -1.428E+01                                 F               0         Blade 1 Y translation displacement, node 3, m
        126   -4.443E+01                                 F               0         Blade 1 Z translation displacement, node 3, m
        127    1.749E+01                                 F               0         Blade 1 X translation displacement, node 4, m
        128   -1.657E+01                                 F               0         Blade 1 Y translation displacement, node 4, m
        129   -5.134E+01                                 F               0         Blade 1 Z translation displacement, node 4, m
        130    1.649E+01                                 F               0         Blade 1 X translation displacement, node 5, m
        131   -1.885E+01                                 F               0         Blade 1 Y translation displacement, node 5, m
        132   -5.825E+01                                 F               0         Blade 1 Z translation displacement, node 5, m
        133    1.550E+01                                 F               0         Blade 1 X translation displacement, node 6, m
        134   -2.114E+01                                 F               0         Blade 1 Y translation displacement, node 6, m
        135   -6.516E+01                                 F               0         Blade 1 Z translation displacement, node 6, m
        136    1.451E+01                                 F               0         Blade 1 X translation displacement, node 7, m
        137   -2.343E+01                                 F               0         Blade 1 Y translation displacement, node 7, m
        138   -7.207E+01                                 F               0         Blade 1 Z translation displacement, node 7, m
        139    1.352E+01                                 F               0         Blade 1 X translation displacement, node 8, m
        140   -2.571E+01                                 F               0         Blade 1 Y translation displacement, node 8, m
        141   -7.898E+01                                 F               0         Blade 1 Z translation displacement, node 8, m
        142    1.252E+01                                 F               0         Blade 1 X translation displacement, node 9, m
        143   -2.800E+01                                 F               0         Blade 1 Y translation displacement, node 9, m
        144   -8.589E+01                                 F               0         Blade 1 Z translation displacement, node 9, m
        145    1.153E+01                                 F               0         Blade 1 X translation displacement, node 10, m
        146   -3.029E+01                                 F               0         Blade 1 Y translation displacement, node 10, m
        147   -9.280E+01                                 F               0         Blade 1 Z translation displacement, node 10, m
        148    1.054E+01                                 F               0         Blade 1 X translation displacement, node 11, m
        149   -3.257E+01                                 F               0         Blade 1 Y translation displacement, node 11, m
        150   -9.971E+01                                 F               0         Blade 1 Z translation displacement, node 11, m
        151    9.548E+00                                 F               0         Blade 1 X translation displacement, node 12, m
        152   -3.486E+01                                 F               0         Blade 1 Y translation displacement, node 12, m
        153   -1.066E+02                                 F               0         Blade 1 Z translation displacement, node 12, m
        154    8.556E+00                                 F               0         Blade 1 X translation displacement, node 13, m
        155   -3.715E+01                                 F               0         Blade 1 Y translation displacement, node 13, m
        156   -1.135E+02                                 F               0         Blade 1 Z translation displacement, node 13, m
        157    7.564E+00                                 F               0         Blade 1 X translation displacement, node 14, m
        158   -3.943E+01                                 F               0         Blade 1 Y translation displacement, node 14, m
        159   -1.204E+02                                 F               0         Blade 1 Z translation displacement, node 14, m
        160    6.572E+00                                 F               0         Blade 1 X translation displacement, node 15, m
        161   -4.172E+01                                 F               0         Blade 1 Y translation displacement, node 15, m
        162   -1.274E+02                                 F               0         Blade 1 Z translation displacement, node 15, m
        163    5.580E+00                                 F               0         Blade 1 X translation displacement, node 16, m
        164   -4.401E+01                                 F               0         Blade 1 Y translation displacement, node 16, m
        165   -1.343E+02                                 F               0         Blade 1 Z translation displacement, node 16, m
        166    4.588E+00                                 F               0         Blade 1 X translation displacement, node 17, m
        167   -4.629E+01                                 F               0         Blade 1 Y translation displacement, node 17, m
        168   -1.412E+02                                 F               0         Blade 1 Z translation displacement, node 17, m
        169    3.596E+00                                 F               0         Blade 1 X translation displacement, node 18, m
        170   -4.858E+01                                 F               0         Blade 1 Y translation displacement, node 18, m
        171   -1.481E+02                                 F               0         Blade 1 Z translation displacement, node 18, m
        172    2.603E+00                                 F               0         Blade 1 X translation displacement, node 19, m
        173   -5.087E+01                                 F               0         Blade 1 Y translation displacement, node 19, m
        174   -1.550E+02                                 F               0         Blade 1 Z translation displacement, node 19, m
        175    1.611E+00                                 F               0         Blade 1 X translation displacement, node 20, m
        176   -5.315E+01                                 F               0         Blade 1 Y translation displacement, node 20, m
        177   -1.619E+02                                 F               0         Blade 1 Z translation displacement, node 20, m
        178    6.191E-01                                 F               0         Blade 1 X translation displacement, node 21, m
        179   -5.544E+01                                 F               0         Blade 1 Y translation displacement, node 21, m
        180   -1.688E+02                                 F               0         Blade 1 Z translation displacement, node 21, m
        181   -3.732E-01                                 F               0         Blade 1 X translation displacement, node 22, m
        182   -5.773E+01                                 F               0         Blade 1 Y translation displacement, node 22, m
        183   -1.757E+02                                 F               0         Blade 1 Z translation displacement, node 22, m
        184   -1.365E+00                                 F               0         Blade 1 X translation displacement, node 23, m
        185   -6.001E+01                                 F               0         Blade 1 Y translation displacement, node 23, m
        186   -1.826E+02                                 F               0         Blade 1 Z translation displacement, node 23, m
        187   -2.357E+00                                 F               0         Blade 1 X translation displacement, node 24, m
        188   -6.230E+01                                 F               0         Blade 1 Y translation displacement, node 24, m
        189   -1.895E+02                                 F               0         Blade 1 Z translation displacement, node 24, m
        190   -3.349E+00                                 F               0         Blade 1 X translation displacement, node 25, m
        191   -6.459E+01                                 F               0         Blade 1 Y translation displacement, node 25, m
        192   -1.965E+02                                 F               0         Blade 1 Z translation displacement, node 25, m
        193   -4.342E+00                                 F               0         Blade 1 X translation displacement, node 26, m
        194   -6.687E+01                                 F               0         Blade 1 Y translation displacement, node 26, m
        195   -2.034E+02                                 F               0         Blade 1 Z translation displacement, node 26, m
        196   -5.334E+00                                 F               0         Blade 1 X translation displacement, node 27, m
        197   -6.916E+01                                 F               0         Blade 1 Y translation displacement, node 27, m
        198   -2.103E+02                                 F               0         Blade 1 Z translation displacement, node 27, m
        199   -6.175E+00                                 F               0         Blade 1 X translation displacement, node 28, m
        200   -7.110E+01                                 F               0         Blade 1 Y translation displacement, node 28, m
        201   -2.161E+02                                 F               0         Blade 1 Z translation displacement, node 28, m
        202    8.061E-01,  3.896E-01, -4.455E-01         F               0         Blade 1 X orientation angle, node 1, rad
        203    5.720E-01, -7.062E-01,  4.173E-01         F               0         Blade 1 Y orientation angle, node 1, rad
        204   -1.520E-01, -5.912E-01, -7.921E-01         F               0         Blade 1 Z orientation angle, node 1, rad
        205    8.061E-01,  3.896E-01, -4.455E-01         F               0         Blade 1 X orientation angle, node 2, rad
        206    5.720E-01, -7.062E-01,  4.173E-01         F               0         Blade 1 Y orientation angle, node 2, rad
        207   -1.520E-01, -5.912E-01, -7.921E-01         F               0         Blade 1 Z orientation angle, node 2, rad
        208    9.187E-01,  2.111E-01, -3.339E-01         F               0         Blade 1 X orientation angle, node 3, rad
        209    3.646E-01, -7.784E-01,  5.110E-01         F               0         Blade 1 Y orientation angle, node 3, rad
        210   -1.520E-01, -5.912E-01, -7.921E-01         F               0         Blade 1 Z orientation angle, node 3, rad
        211    9.332E-01,  1.781E-01, -3.120E-01         F               0         Blade 1 X orientation angle, node 4, rad
        212    3.255E-01, -7.866E-01,  5.247E-01         F               0         Blade 1 Y orientation angle, node 4, rad
        213   -1.520E-01, -5.912E-01, -7.921E-01         F               0         Blade 1 Z orientation angle, node 4, rad
        214    9.435E-01,  1.519E-01, -2.944E-01         F               0         Blade 1 X orientation angle, node 5, rad
        215    2.944E-01, -7.921E-01,  5.347E-01         F               0         Blade 1 Y orientation angle, node 5, rad
        216   -1.520E-01, -5.912E-01, -7.921E-01         F               0         Blade 1 Z orientation angle, node 5, rad
        217    9.510E-01,  1.308E-01, -2.802E-01         F               0         Blade 1 X orientation angle, node 6, rad
        218    2.693E-01, -7.958E-01,  5.424E-01         F               0         Blade 1 Y orientation angle, node 6, rad
        219   -1.520E-01, -5.912E-01, -7.921E-01         F               0         Blade 1 Z orientation angle, node 6, rad
        220    9.566E-01,  1.134E-01, -2.683E-01         F               0         Blade 1 X orientation angle, node 7, rad
        221    2.484E-01, -7.985E-01,  5.483E-01         F               0         Blade 1 Y orientation angle, node 7, rad
        222   -1.520E-01, -5.912E-01, -7.921E-01         F               0         Blade 1 Z orientation angle, node 7, rad
        223    9.610E-01,  9.893E-02, -2.583E-01         F               0         Blade 1 X orientation angle, node 8, rad
        224    2.310E-01, -8.004E-01,  5.531E-01         F               0         Blade 1 Y orientation angle, node 8, rad
        225   -1.520E-01, -5.912E-01, -7.921E-01         F               0         Blade 1 Z orientation angle, node 8, rad
        226    9.644E-01,  8.662E-02, -2.497E-01         F               0         Blade 1 X orientation angle, node 9, rad
        227    2.163E-01, -8.018E-01,  5.570E-01         F               0         Blade 1 Y orientation angle, node 9, rad