
Linearized model: Predictions were generated on 06-Feb-2024 at 08:44:08 using OpenFAST, compiled as a 64-bit application using single precision at commit v3.5.1
 linked with  NWTC Subroutine Library; ElastoDyn; InflowWind; AeroDyn; ServoDyn; HydroDyn; MAP++ (<1.20.10>, <Oct-20-2023>)

Description from the FAST input file: CCT-9 Campign 4 model. Input files to be run with OpenFAST 3.5.0. GitHub branch from Lu Wang (https://github.com/luwang00/openfast/tree/dev) compiled on March 7, 2023.

Simulation information:
   Simulation time:                  2503.8000 s
   Rotor Speed:                         0.8854 rad/s
   Azimuth:                             0.2332 rad
   Wind Speed:                         10.0000 m/s
   Number of continuous states:        22
   Number of discrete states:           0
   Number of constraint states:         0
   Number of inputs:                 1890
   Number of outputs:                  19
   Jacobians included in this file?    No

Order of continuous states:
   Row/Column Operating Point                     Rotating Frame? Derivative Order Description
   ---------- ---------------                     --------------- ---------------- -----------
          1    1.247E+01                                 F               2         Platform horizontal surge translation DOF (internal DOF index = DOF_Sg), m
          2    2.481E-02                                 F               2         Platform horizontal sway translation DOF (internal DOF index = DOF_Sw), m
          3   -1.270E-01                                 F               2         Platform vertical heave translation DOF (internal DOF index = DOF_Hv), m
          4   -2.574E-03                                 F               2         Platform roll tilt rotation DOF (internal DOF index = DOF_R), rad
          5    7.852E-02                                 F               2         Platform pitch tilt rotation DOF (internal DOF index = DOF_P), rad
          6    1.435E-03                                 F               2         Platform yaw rotation DOF (internal DOF index = DOF_Y), rad
          7    6.087E-01                                 F               2         1st tower fore-aft bending mode DOF (internal DOF index = DOF_TFA1), m
          8   -1.898E-02                                 F               2         1st tower side-to-side bending mode DOF (internal DOF index = DOF_TSS1), m
          9    1.432E-03                                 F               2         2nd tower fore-aft bending mode DOF (internal DOF index = DOF_TFA2), m
         10   -3.857E-06                                 F               2         2nd tower side-to-side bending mode DOF (internal DOF index = DOF_TSS2), m
         11    4.946E+00                                 F               2         Variable speed generator DOF (internal DOF index = DOF_GeAz), rad
         12   -2.688E-05                                 F               2         First time derivative of Platform horizontal surge translation DOF (internal DOF index = DOF_Sg), m/s
         13    6.593E-04                                 F               2         First time derivative of Platform horizontal sway translation DOF (internal DOF index = DOF_Sw), m/s
         14    4.525E-04                                 F               2         First time derivative of Platform vertical heave translation DOF (internal DOF index = DOF_Hv), m/s
         15   -3.582E-04                                 F               2         First time derivative of Platform roll tilt rotation DOF (internal DOF index = DOF_R), rad/s
         16   -4.857E-06                                 F               2         First time derivative of Platform pitch tilt rotation DOF (internal DOF index = DOF_P), rad/s
         17    1.798E-05                                 F               2         First time derivative of Platform yaw rotation DOF (internal DOF index = DOF_Y), rad/s
         18    1.534E-03                                 F               2         First time derivative of 1st tower fore-aft bending mode DOF (internal DOF index = DOF_TFA1), m/s
         19   -6.307E-04                                 F               2         First time derivative of 1st tower side-to-side bending mode DOF (internal DOF index = DOF_TSS1), m/s
         20   -1.326E-06                                 F               2         First time derivative of 2nd tower fore-aft bending mode DOF (internal DOF index = DOF_TFA2), m/s
         21   -1.749E-06                                 F               2         First time derivative of 2nd tower side-to-side bending mode DOF (internal DOF index = DOF_TSS2), m/s
         22    8.854E-01                                 F               2         First time derivative of Variable speed generator DOF (internal DOF index = DOF_GeAz), rad/s

Order of continuous state derivatives:
   Row/Column Operating Point                     Rotating Frame? Derivative Order Description
   ---------- ---------------                     --------------- ---------------- -----------
          1   -2.688E-05                                 F               2         First time derivative of Platform horizontal surge translation DOF (internal DOF index = DOF_Sg), m/s
          2    6.593E-04                                 F               2         First time derivative of Platform horizontal sway translation DOF (internal DOF index = DOF_Sw), m/s
          3    4.525E-04                                 F               2         First time derivative of Platform vertical heave translation DOF (internal DOF index = DOF_Hv), m/s
          4   -3.582E-04                                 F               2         First time derivative of Platform roll tilt rotation DOF (internal DOF index = DOF_R), rad/s
          5   -4.857E-06                                 F               2         First time derivative of Platform pitch tilt rotation DOF (internal DOF index = DOF_P), rad/s
          6    1.798E-05                                 F               2         First time derivative of Platform yaw rotation DOF (internal DOF index = DOF_Y), rad/s
          7    1.534E-03                                 F               2         First time derivative of 1st tower fore-aft bending mode DOF (internal DOF index = DOF_TFA1), m/s
          8   -6.307E-04                                 F               2         First time derivative of 1st tower side-to-side bending mode DOF (internal DOF index = DOF_TSS1), m/s
          9   -1.326E-06                                 F               2         First time derivative of 2nd tower fore-aft bending mode DOF (internal DOF index = DOF_TFA2), m/s
         10   -1.749E-06                                 F               2         First time derivative of 2nd tower side-to-side bending mode DOF (internal DOF index = DOF_TSS2), m/s
         11    8.854E-01                                 F               2         First time derivative of Variable speed generator DOF (internal DOF index = DOF_GeAz), rad/s
         12    3.618E-04                                 F               2         First time derivative of First time derivative of Platform horizontal surge translation DOF (internal DOF index = DOF_Sg), m/s/s
         13    6.287E-04                                 F               2         First time derivative of First time derivative of Platform horizontal sway translation DOF (internal DOF index = DOF_Sw), m/s/s
         14   -5.613E-04                                 F               2         First time derivative of First time derivative of Platform vertical heave translation DOF (internal DOF index = DOF_Hv), m/s/s
         15    5.167E-05                                 F               2         First time derivative of First time derivative of Platform roll tilt rotation DOF (internal DOF index = DOF_R), rad/s/s
         16    2.322E-05                                 F               2         First time derivative of First time derivative of Platform pitch tilt rotation DOF (internal DOF index = DOF_P), rad/s/s
         17   -5.296E-05                                 F               2         First time derivative of First time derivative of Platform yaw rotation DOF (internal DOF index = DOF_Y), rad/s/s
         18   -4.686E-03                                 F               2         First time derivative of First time derivative of 1st tower fore-aft bending mode DOF (internal DOF index = DOF_TFA1), m/s/s
         19    4.933E-03                                 F               2         First time derivative of First time derivative of 1st tower side-to-side bending mode DOF (internal DOF index = DOF_TSS1), m/s/s
         20   -8.291E-07                                 F               2         First time derivative of First time derivative of 2nd tower fore-aft bending mode DOF (internal DOF index = DOF_TFA2), m/s/s
         21    8.632E-07                                 F               2         First time derivative of First time derivative of 2nd tower side-to-side bending mode DOF (internal DOF index = DOF_TSS2), m/s/s
         22   -2.583E-04                                 F               2         First time derivative of First time derivative of Variable speed generator DOF (internal DOF index = DOF_GeAz), rad/s/s

Order of inputs:
     Column   Operating Point                     Rotating Frame? Derivative Order Description
   ---------- ---------------                     --------------- ---------------- -----------
          1    7.698E+01                                 F               0         Blade 1 X force, node 1, N
          2    8.583E+01                                 F               0         Blade 1 Y force, node 1, N
          3    5.651E+00                                 F               0         Blade 1 Z force, node 1, N
          4    3.174E+02                                 F               0         Blade 1 X force, node 2, N
          5    1.604E+02                                 F               0         Blade 1 Y force, node 2, N
          6   -2.288E+01                                 F               0         Blade 1 Z force, node 2, N
          7    4.033E+02                                 F               0         Blade 1 X force, node 3, N
          8    1.028E+02                                 F               0         Blade 1 Y force, node 3, N
          9   -5.319E+01                                 F               0         Blade 1 Z force, node 3, N
         10    5.230E+02                                 F               0         Blade 1 X force, node 4, N
         11    6.499E+01                                 F               0         Blade 1 Y force, node 4, N
         12   -8.528E+01                                 F               0         Blade 1 Z force, node 4, N
         13    6.427E+02                                 F               0         Blade 1 X force, node 5, N
         14    2.721E+01                                 F               0         Blade 1 Y force, node 5, N
         15   -1.174E+02                                 F               0         Blade 1 Z force, node 5, N
         16    7.624E+02                                 F               0         Blade 1 X force, node 6, N
         17   -1.056E+01                                 F               0         Blade 1 Y force, node 6, N
         18   -1.495E+02                                 F               0         Blade 1 Z force, node 6, N
         19    8.821E+02                                 F               0         Blade 1 X force, node 7, N
         20   -4.833E+01                                 F               0         Blade 1 Y force, node 7, N
         21   -1.815E+02                                 F               0         Blade 1 Z force, node 7, N
         22    1.002E+03                                 F               0         Blade 1 X force, node 8, N
         23   -8.610E+01                                 F               0         Blade 1 Y force, node 8, N
         24   -2.136E+02                                 F               0         Blade 1 Z force, node 8, N
         25    1.122E+03                                 F               0         Blade 1 X force, node 9, N
         26   -1.239E+02                                 F               0         Blade 1 Y force, node 9, N
         27   -2.457E+02                                 F               0         Blade 1 Z force, node 9, N
         28    1.241E+03                                 F               0         Blade 1 X force, node 10, N
         29   -1.616E+02                                 F               0         Blade 1 Y force, node 10, N
         30   -2.778E+02                                 F               0         Blade 1 Z force, node 10, N
         31    1.361E+03                                 F               0         Blade 1 X force, node 11, N
         32   -1.994E+02                                 F               0         Blade 1 Y force, node 11, N
         33   -3.099E+02                                 F               0         Blade 1 Z force, node 11, N
         34    1.481E+03                                 F               0         Blade 1 X force, node 12, N
         35   -2.372E+02                                 F               0         Blade 1 Y force, node 12, N
         36   -3.420E+02                                 F               0         Blade 1 Z force, node 12, N
         37    1.600E+03                                 F               0         Blade 1 X force, node 13, N
         38   -2.750E+02                                 F               0         Blade 1 Y force, node 13, N
         39   -3.741E+02                                 F               0         Blade 1 Z force, node 13, N
         40    1.720E+03                                 F               0         Blade 1 X force, node 14, N
         41   -3.127E+02                                 F               0         Blade 1 Y force, node 14, N
         42   -4.061E+02                                 F               0         Blade 1 Z force, node 14, N
         43    1.840E+03                                 F               0         Blade 1 X force, node 15, N
         44   -3.505E+02                                 F               0         Blade 1 Y force, node 15, N
         45   -4.382E+02                                 F               0         Blade 1 Z force, node 15, N
         46    1.960E+03                                 F               0         Blade 1 X force, node 16, N
         47   -3.883E+02                                 F               0         Blade 1 Y force, node 16, N
         48   -4.703E+02                                 F               0         Blade 1 Z force, node 16, N
         49    2.413E+03                                 F               0         Blade 1 X force, node 17, N
         50   -4.920E+02                                 F               0         Blade 1 Y force, node 17, N
         51   -5.824E+02                                 F               0         Blade 1 Z force, node 17, N
         52    1.855E+03                                 F               0         Blade 1 X force, node 18, N
         53   -3.647E+02                                 F               0         Blade 1 Y force, node 18, N
         54   -4.445E+02                                 F               0         Blade 1 Z force, node 18, N
         55    2.295E+03                                 F               0         Blade 1 X force, node 19, N
         56   -4.266E+02                                 F               0         Blade 1 Y force, node 19, N
         57   -5.441E+02                                 F               0         Blade 1 Z force, node 19, N
         58    1.971E+03                                 F               0         Blade 1 X force, node 20, N
         59   -3.472E+02                                 F               0         Blade 1 Y force, node 20, N
         60   -4.627E+02                                 F               0         Blade 1 Z force, node 20, N
         61    2.935E+03                                 F               0         Blade 1 X force, node 21, N
         62   -4.853E+02                                 F               0         Blade 1 Y force, node 21, N
         63   -6.814E+02                                 F               0         Blade 1 Z force, node 21, N
         64    2.611E+03                                 F               0         Blade 1 X force, node 22, N
         65   -4.048E+02                                 F               0         Blade 1 Y force, node 22, N
         66   -5.997E+02                                 F               0         Blade 1 Z force, node 22, N
         67    2.700E+03                                 F               0         Blade 1 X force, node 23, N
         68   -3.945E+02                                 F               0         Blade 1 Y force, node 23, N
         69   -6.144E+02                                 F               0         Blade 1 Z force, node 23, N
         70    2.837E+03                                 F               0         Blade 1 X force, node 24, N
         71   -3.910E+02                                 F               0         Blade 1 Y force, node 24, N
         72   -6.400E+02                                 F               0         Blade 1 Z force, node 24, N
         73    2.925E+03                                 F               0         Blade 1 X force, node 25, N
         74   -3.800E+02                                 F               0         Blade 1 Y force, node 25, N
         75   -6.543E+02                                 F               0         Blade 1 Z force, node 25, N
         76    3.028E+03                                 F               0         Blade 1 X force, node 26, N
         77   -3.711E+02                                 F               0         Blade 1 Y force, node 26, N
         78   -6.722E+02                                 F               0         Blade 1 Z force, node 26, N
         79    3.649E+03                                 F               0         Blade 1 X force, node 27, N
         80   -4.204E+02                                 F               0         Blade 1 Y force, node 27, N
         81   -8.036E+02                                 F               0         Blade 1 Z force, node 27, N
         82    2.719E+03                                 F               0         Blade 1 X force, node 28, N
         83   -2.947E+02                                 F               0         Blade 1 Y force, node 28, N
         84   -5.944E+02                                 F               0         Blade 1 Z force, node 28, N
         85    3.340E+03                                 F               0         Blade 1 X force, node 29, N
         86   -3.436E+02                                 F               0         Blade 1 Y force, node 29, N
         87   -7.257E+02                                 F               0         Blade 1 Z force, node 29, N
         88    2.852E+03                                 F               0         Blade 1 X force, node 30, N
         89   -2.787E+02                                 F               0         Blade 1 Y force, node 30, N
         90   -6.162E+02                                 F               0         Blade 1 Z force, node 30, N
         91    4.139E+03                                 F               0         Blade 1 X force, node 31, N
         92   -3.803E+02                                 F               0         Blade 1 Y force, node 31, N
         93   -8.884E+02                                 F               0         Blade 1 Z force, node 31, N
         94    3.651E+03                                 F               0         Blade 1 X force, node 32, N
         95   -3.149E+02                                 F               0         Blade 1 Y force, node 32, N
         96   -7.787E+02                                 F               0         Blade 1 Z force, node 32, N
         97    3.753E+03                                 F               0         Blade 1 X force, node 33, N
         98   -3.050E+02                                 F               0         Blade 1 Y force, node 33, N
         99   -7.961E+02                                 F               0         Blade 1 Z force, node 33, N
        100    3.857E+03                                 F               0         Blade 1 X force, node 34, N
        101   -2.952E+02                                 F               0         Blade 1 Y force, node 34, N
        102   -8.137E+02                                 F               0         Blade 1 Z force, node 34, N
        103    3.960E+03                                 F               0         Blade 1 X force, node 35, N
        104   -2.851E+02                                 F               0         Blade 1 Y force, node 35, N
        105   -8.312E+02                                 F               0         Blade 1 Z force, node 35, N
        106    4.062E+03                                 F               0         Blade 1 X force, node 36, N
        107   -2.749E+02                                 F               0         Blade 1 Y force, node 36, N
        108   -8.485E+02                                 F               0         Blade 1 Z force, node 36, N
        109    4.874E+03                                 F               0         Blade 1 X force, node 37, N
        110   -3.086E+02                                 F               0         Blade 1 Y force, node 37, N
        111   -1.013E+03                                 F               0         Blade 1 Z force, node 37, N
        112    3.560E+03                                 F               0         Blade 1 X force, node 38, N
        113   -2.108E+02                                 F               0         Blade 1 Y force, node 38, N
        114   -7.363E+02                                 F               0         Blade 1 Z force, node 38, N
        115    4.372E+03                                 F               0         Blade 1 X force, node 39, N
        116   -2.444E+02                                 F               0         Blade 1 Y force, node 39, N
        117   -9.009E+02                                 F               0         Blade 1 Z force, node 39, N
        118    3.736E+03                                 F               0         Blade 1 X force, node 40, N
        119   -1.969E+02                                 F               0         Blade 1 Y force, node 40, N
        120   -7.670E+02                                 F               0         Blade 1 Z force, node 40, N
        121    5.319E+03                                 F               0         Blade 1 X force, node 41, N
        122   -2.611E+02                                 F               0         Blade 1 Y force, node 41, N
        123   -1.087E+03                                 F               0         Blade 1 Z force, node 41, N
        124    4.681E+03                                 F               0         Blade 1 X force, node 42, N
        125   -2.133E+02                                 F               0         Blade 1 Y force, node 42, N
        126   -9.530E+02                                 F               0         Blade 1 Z force, node 42, N
        127    4.783E+03                                 F               0         Blade 1 X force, node 43, N
        128   -2.027E+02                                 F               0         Blade 1 Y force, node 43, N
        129   -9.701E+02                                 F               0         Blade 1 Z force, node 43, N
        130    4.911E+03                                 F               0         Blade 1 X force, node 44, N
        131   -1.931E+02                                 F               0         Blade 1 Y force, node 44, N
        132   -9.924E+02                                 F               0         Blade 1 Z force, node 44, N
        133    4.961E+03                                 F               0         Blade 1 X force, node 45, N
        134   -1.805E+02                                 F               0         Blade 1 Y force, node 45, N
        135   -9.991E+02                                 F               0         Blade 1 Z force, node 45, N
        136    5.089E+03                                 F               0         Blade 1 X force, node 46, N
        137   -1.708E+02                                 F               0         Blade 1 Y force, node 46, N
        138   -1.021E+03                                 F               0         Blade 1 Z force, node 46, N
        139    6.102E+03                                 F               0         Blade 1 X force, node 47, N
        140   -1.872E+02                                 F               0         Blade 1 Y force, node 47, N
        141   -1.221E+03                                 F               0         Blade 1 Z force, node 47, N
        142    4.381E+03                                 F               0         Blade 1 X force, node 48, N
        143   -1.224E+02                                 F               0         Blade 1 Y force, node 48, N
        144   -8.735E+02                                 F               0         Blade 1 Z force, node 48, N
        145    5.394E+03                                 F               0         Blade 1 X force, node 49, N
        146   -1.387E+02                                 F               0         Blade 1 Y force, node 49, N
        147   -1.073E+03                                 F               0         Blade 1 Z force, node 49, N
        148    4.621E+03                                 F               0         Blade 1 X force, node 50, N
        149   -1.087E+02                                 F               0         Blade 1 Y force, node 50, N
        150   -9.164E+02                                 F               0         Blade 1 Z force, node 50, N
        151    6.472E+03                                 F               0         Blade 1 X force, node 51, N
        152   -1.363E+02                                 F               0         Blade 1 Y force, node 51, N
        153   -1.280E+03                                 F               0         Blade 1 Z force, node 51, N
        154    5.700E+03                                 F               0         Blade 1 X force, node 52, N
        155   -1.064E+02                                 F               0         Blade 1 Y force, node 52, N
        156   -1.124E+03                                 F               0         Blade 1 Z force, node 52, N
        157    5.803E+03                                 F               0         Blade 1 X force, node 53, N
        158   -9.562E+01                                 F               0         Blade 1 Y force, node 53, N
        159   -1.141E+03                                 F               0         Blade 1 Z force, node 53, N
        160    5.971E+03                                 F               0         Blade 1 X force, node 54, N
        161   -8.576E+01                                 F               0         Blade 1 Y force, node 54, N
        162   -1.171E+03                                 F               0         Blade 1 Z force, node 54, N
        163    5.943E+03                                 F               0         Blade 1 X force, node 55, N
        164   -7.315E+01                                 F               0         Blade 1 Y force, node 55, N
        165   -1.163E+03                                 F               0         Blade 1 Z force, node 55, N
        166    6.110E+03                                 F               0         Blade 1 X force, node 56, N
        167   -6.318E+01                                 F               0         Blade 1 Y force, node 56, N
        168   -1.193E+03                                 F               0         Blade 1 Z force, node 56, N
        169    7.337E+03                                 F               0         Blade 1 X force, node 57, N
        170   -6.085E+01                                 F               0         Blade 1 Y force, node 57, N
        171   -1.428E+03                                 F               0         Blade 1 Z force, node 57, N
        172    5.190E+03                                 F               0         Blade 1 X force, node 58, N
        173   -3.292E+01                                 F               0         Blade 1 Y force, node 58, N
        174   -1.008E+03                                 F               0         Blade 1 Z force, node 58, N
        175    6.417E+03                                 F               0         Blade 1 X force, node 59, N
        176   -3.052E+01                                 F               0         Blade 1 Y force, node 59, N
        177   -1.244E+03                                 F               0         Blade 1 Z force, node 59, N
        178    5.521E+03                                 F               0         Blade 1 X force, node 60, N
        179   -1.756E+01                                 F               0         Blade 1 Y force, node 60, N
        180   -1.068E+03                                 F               0         Blade 1 Z force, node 60, N
        181    7.619E+03                                 F               0         Blade 1 X force, node 61, N
        182   -1.066E+01                                 F               0         Blade 1 Y force, node 61, N
        183   -1.471E+03                                 F               0         Blade 1 Z force, node 61, N
        184    6.721E+03                                 F               0         Blade 1 X force, node 62, N