
Linearized model: Predictions were generated on 06-Feb-2024 at 08:44:08 using OpenFAST, compiled as a 64-bit application using single precision at commit v3.5.1
 linked with  NWTC Subroutine Library; ElastoDyn; InflowWind; AeroDyn; ServoDyn; HydroDyn; MAP++ (<1.20.10>, <Oct-20-2023>)

Description from the FAST input file: CCT-9 Campign 4 model. Input files to be run with OpenFAST 3.5.0. GitHub branch from Lu Wang (https://github.com/luwang00/openfast/tree/dev) compiled on March 7, 2023.

Simulation information:
   Simulation time:                  2503.8000 s
   Rotor Speed:                         0.8854 rad/s
   Azimuth:                             0.2332 rad
   Wind Speed:                         10.0000 m/s
   Number of continuous states:         0
   Number of discrete states:           0
   Number of constraint states:         0
   Number of inputs:                 1746
   Number of outputs:                   4
   Jacobians included in this file?    No

Order of inputs:
     Column   Operating Point                     Rotating Frame? Derivative Order Description
   ---------- ---------------                     --------------- ---------------- -----------
          1    1.391E+01                                 F               0         Tower X translation displacement, node 1, m
          2    7.291E-02                                 F               0         Tower Y translation displacement, node 1, m
          3   -1.833E-01                                 F               0         Tower Z translation displacement, node 1, m
          4    1.488E+01                                 F               0         Tower X translation displacement, node 2, m
          5    1.056E-01                                 F               0         Tower Y translation displacement, node 2, m
          6   -2.219E-01                                 F               0         Tower Z translation displacement, node 2, m
          7    1.588E+01                                 F               0         Tower X translation displacement, node 3, m
          8    1.388E-01                                 F               0         Tower Y translation displacement, node 3, m
          9   -2.621E-01                                 F               0         Tower Z translation displacement, node 3, m
         10    1.689E+01                                 F               0         Tower X translation displacement, node 4, m
         11    1.725E-01                                 F               0         Tower Y translation displacement, node 4, m
         12   -3.035E-01                                 F               0         Tower Z translation displacement, node 4, m
         13    1.791E+01                                 F               0         Tower X translation displacement, node 5, m
         14    2.066E-01                                 F               0         Tower Y translation displacement, node 5, m
         15   -3.460E-01                                 F               0         Tower Z translation displacement, node 5, m
         16    1.894E+01                                 F               0         Tower X translation displacement, node 6, m
         17    2.411E-01                                 F               0         Tower Y translation displacement, node 6, m
         18   -3.893E-01                                 F               0         Tower Z translation displacement, node 6, m
         19    1.998E+01                                 F               0         Tower X translation displacement, node 7, m
         20    2.759E-01                                 F               0         Tower Y translation displacement, node 7, m
         21   -4.332E-01                                 F               0         Tower Z translation displacement, node 7, m
         22    2.103E+01                                 F               0         Tower X translation displacement, node 8, m
         23    3.109E-01                                 F               0         Tower Y translation displacement, node 8, m
         24   -4.776E-01                                 F               0         Tower Z translation displacement, node 8, m
         25    2.208E+01                                 F               0         Tower X translation displacement, node 9, m
         26    3.460E-01                                 F               0         Tower Y translation displacement, node 9, m
         27   -5.223E-01                                 F               0         Tower Z translation displacement, node 9, m
         28    2.313E+01                                 F               0         Tower X translation displacement, node 10, m
         29    3.813E-01                                 F               0         Tower Y translation displacement, node 10, m
         30   -5.673E-01                                 F               0         Tower Z translation displacement, node 10, m
         31    2.419E+01                                 F               0         Tower X translation displacement, node 11, m
         32    4.167E-01                                 F               0         Tower Y translation displacement, node 11, m
         33   -6.124E-01                                 F               0         Tower Z translation displacement, node 11, m
         34    9.969E-01,  1.330E-03, -7.828E-02         F               0         Tower X orientation angle, node 1, rad
         35   -1.531E-03,  1.000E+00, -2.510E-03         F               0         Tower Y orientation angle, node 1, rad
         36    7.828E-02,  2.623E-03,  9.969E-01         F               0         Tower Z orientation angle, node 1, rad
         37    9.968E-01,  1.326E-03, -7.982E-02         F               0         Tower X orientation angle, node 2, rad
         38   -1.535E-03,  1.000E+00, -2.554E-03         F               0         Tower Y orientation angle, node 2, rad
         39    7.981E-02,  2.668E-03,  9.968E-01         F               0         Tower Z orientation angle, node 2, rad
         40    9.967E-01,  1.322E-03, -8.116E-02         F               0         Tower X orientation angle, node 3, rad
         41   -1.538E-03,  1.000E+00, -2.593E-03         F               0         Tower Y orientation angle, node 3, rad
         42    8.115E-02,  2.709E-03,  9.967E-01         F               0         Tower Z orientation angle, node 3, rad
         43    9.966E-01,  1.319E-03, -8.228E-02         F               0         Tower X orientation angle, node 4, rad
         44   -1.541E-03,  1.000E+00, -2.627E-03         F               0         Tower Y orientation angle, node 4, rad
         45    8.227E-02,  2.745E-03,  9.966E-01         F               0         Tower Z orientation angle, node 4, rad
         46    9.965E-01,  1.317E-03, -8.319E-02         F               0         Tower X orientation angle, node 5, rad
         47   -1.543E-03,  1.000E+00, -2.657E-03         F               0         Tower Y orientation angle, node 5, rad
         48    8.319E-02,  2.776E-03,  9.965E-01         F               0         Tower Z orientation angle, node 5, rad
         49    9.965E-01,  1.315E-03, -8.391E-02         F               0         Tower X orientation angle, node 6, rad
         50   -1.545E-03,  1.000E+00, -2.682E-03         F               0         Tower Y orientation angle, node 6, rad
         51    8.391E-02,  2.803E-03,  9.965E-01         F               0         Tower Z orientation angle, node 6, rad
         52    9.964E-01,  1.313E-03, -8.445E-02         F               0         Tower X orientation angle, node 7, rad
         53   -1.547E-03,  1.000E+00, -2.703E-03         F               0         Tower Y orientation angle, node 7, rad
         54    8.445E-02,  2.824E-03,  9.964E-01         F               0         Tower Z orientation angle, node 7, rad
         55    9.964E-01,  1.312E-03, -8.484E-02         F               0         Tower X orientation angle, node 8, rad
         56   -1.548E-03,  1.000E+00, -2.719E-03         F               0         Tower Y orientation angle, node 8, rad
         57    8.483E-02,  2.840E-03,  9.964E-01         F               0         Tower Z orientation angle, node 8, rad
         58    9.964E-01,  1.311E-03, -8.509E-02         F               0         Tower X orientation angle, node 9, rad
         59   -1.549E-03,  1.000E+00, -2.730E-03         F               0         Tower Y orientation angle, node 9, rad
         60    8.509E-02,  2.852E-03,  9.964E-01         F               0         Tower Z orientation angle, node 9, rad
         61    9.964E-01,  1.311E-03, -8.525E-02         F               0         Tower X orientation angle, node 10, rad
         62   -1.550E-03,  1.000E+00, -2.738E-03         F               0         Tower Y orientation angle, node 10, rad
         63    8.524E-02,  2.860E-03,  9.964E-01         F               0         Tower Z orientation angle, node 10, rad
         64    9.964E-01,  1.311E-03, -8.532E-02         F               0         Tower X orientation angle, node 11, rad
         65   -1.550E-03,  1.000E+00, -2.742E-03         F               0         Tower Y orientation angle, node 11, rad
         66    8.532E-02,  2.865E-03,  9.963E-01         F               0         Tower Z orientation angle, node 11, rad
         67   -1.166E-04                                 F               0         Tower X translation velocity, node 1, m/s
         68    7.234E-03                                 F               0         Tower Y translation velocity, node 1, m/s
         69    4.423E-04                                 F               0         Tower Z translation velocity, node 1, m/s
         70   -1.600E-04                                 F               0         Tower X translation velocity, node 2, m/s
         71    1.167E-02                                 F               0         Tower Y translation velocity, node 2, m/s
         72    4.340E-04                                 F               0         Tower Z translation velocity, node 2, m/s
         73   -1.592E-04                                 F               0         Tower X translation velocity, node 3, m/s
         74    1.613E-02                                 F               0         Tower Y translation velocity, node 3, m/s
         75    4.219E-04                                 F               0         Tower Z translation velocity, node 3, m/s
         76   -1.224E-04                                 F               0         Tower X translation velocity, node 4, m/s
         77    2.060E-02                                 F               0         Tower Y translation velocity, node 4, m/s
         78    4.066E-04                                 F               0         Tower Z translation velocity, node 4, m/s
         79   -5.337E-05                                 F               0         Tower X translation velocity, node 5, m/s
         80    2.509E-02                                 F               0         Tower Y translation velocity, node 5, m/s
         81    3.884E-04                                 F               0         Tower Z translation velocity, node 5, m/s
         82    4.398E-05                                 F               0         Tower X translation velocity, node 6, m/s
         83    2.959E-02                                 F               0         Tower Y translation velocity, node 6, m/s
         84    3.676E-04                                 F               0         Tower Z translation velocity, node 6, m/s
         85    1.639E-04                                 F               0         Tower X translation velocity, node 7, m/s
         86    3.409E-02                                 F               0         Tower Y translation velocity, node 7, m/s
         87    3.448E-04                                 F               0         Tower Z translation velocity, node 7, m/s
         88    3.044E-04                                 F               0         Tower X translation velocity, node 8, m/s
         89    3.860E-02                                 F               0         Tower Y translation velocity, node 8, m/s
         90    3.201E-04                                 F               0         Tower Z translation velocity, node 8, m/s
         91    4.611E-04                                 F               0         Tower X translation velocity, node 9, m/s
         92    4.312E-02                                 F               0         Tower Y translation velocity, node 9, m/s
         93    2.938E-04                                 F               0         Tower Z translation velocity, node 9, m/s
         94    6.297E-04                                 F               0         Tower X translation velocity, node 10, m/s
         95    4.763E-02                                 F               0         Tower Y translation velocity, node 10, m/s
         96    2.664E-04                                 F               0         Tower Z translation velocity, node 10, m/s
         97    8.056E-04                                 F               0         Tower X translation velocity, node 11, m/s
         98    5.215E-02                                 F               0         Tower Y translation velocity, node 11, m/s
         99    2.384E-04                                 F               0         Tower Z translation velocity, node 11, m/s
        100    2.489E+01                                 F               0         Hub X translation displacement, node 1, m
        101    4.251E-01                                 F               0         Hub Y translation displacement, node 1, m
        102    2.805E-01                                 F               0         Hub Z translation displacement, node 1, m
        103    9.820E-01,  1.004E-03, -1.890E-01         F               0         Hub X orientation angle, node 1, rad
        104    4.217E-02,  9.736E-01,  2.243E-01         F               0         Hub Y orientation angle, node 1, rad
        105    1.842E-01, -2.282E-01,  9.560E-01         F               0         Hub Z orientation angle, node 1, rad
        106    8.690E-01                                 F               0         Hub X rotation velocity, node 1, rad/s
        107    9.034E-04                                 F               0         Hub Y rotation velocity, node 1, rad/s
        108   -1.673E-01                                 F               0         Hub Z rotation velocity, node 1, rad/s
        109    9.803E-01, -2.788E-02, -1.956E-01         F               0         Blade root 1 X orientation angle, node 1, rad
        110    7.128E-02,  9.732E-01,  2.186E-01         F               0         Blade root 1 Y orientation angle, node 1, rad
        111    1.842E-01, -2.282E-01,  9.560E-01         F               0         Blade root 1 Z orientation angle, node 1, rad
        112    9.774E-01,  2.131E-02, -2.102E-01         F               0         Blade root 2 X orientation angle, node 1, rad
        113    1.675E-01, -6.841E-01,  7.099E-01         F               0         Blade root 2 Y orientation angle, node 1, rad
        114   -1.286E-01, -7.291E-01, -6.722E-01         F               0         Blade root 2 Z orientation angle, node 1, rad
        115    9.869E-01,  9.583E-03, -1.610E-01         F               0         Blade root 3 X orientation angle, node 1, rad
        116   -1.514E-01, -2.890E-01, -9.453E-01         F               0         Blade root 3 Y orientation angle, node 1, rad
        117   -5.560E-02,  9.573E-01, -2.838E-01         F               0         Blade root 3 Z orientation angle, node 1, rad
        118    2.534E+01                                 F               0         Blade 1 X translation displacement, node 1, m
        119   -8.392E-01                                 F               0         Blade 1 Y translation displacement, node 1, m
        120    6.722E-02                                 F               0         Blade 1 Z translation displacement, node 1, m
        121    2.544E+01                                 F               0         Blade 1 X translation displacement, node 2, m
        122   -1.144E+00                                 F               0         Blade 1 Y translation displacement, node 2, m
        123    1.583E-02                                 F               0         Blade 1 Z translation displacement, node 2, m
        124    2.689E+01                                 F               0         Blade 1 X translation displacement, node 3, m
        125   -5.286E+00                                 F               0         Blade 1 Y translation displacement, node 3, m
        126   -6.830E-01                                 F               0         Blade 1 Z translation displacement, node 3, m
        127    2.720E+01                                 F               0         Blade 1 X translation displacement, node 4, m
        128   -6.169E+00                                 F               0         Blade 1 Y translation displacement, node 4, m
        129   -8.319E-01                                 F               0         Blade 1 Z translation displacement, node 4, m
        130    2.751E+01                                 F               0         Blade 1 X translation displacement, node 5, m
        131   -7.051E+00                                 F               0         Blade 1 Y translation displacement, node 5, m
        132   -9.808E-01                                 F               0         Blade 1 Z translation displacement, node 5, m
        133    2.781E+01                                 F               0         Blade 1 X translation displacement, node 6, m
        134   -7.934E+00                                 F               0         Blade 1 Y translation displacement, node 6, m
        135   -1.130E+00                                 F               0         Blade 1 Z translation displacement, node 6, m
        136    2.812E+01                                 F               0         Blade 1 X translation displacement, node 7, m
        137   -8.817E+00                                 F               0         Blade 1 Y translation displacement, node 7, m
        138   -1.279E+00                                 F               0         Blade 1 Z translation displacement, node 7, m
        139    2.843E+01                                 F               0         Blade 1 X translation displacement, node 8, m
        140   -9.699E+00                                 F               0         Blade 1 Y translation displacement, node 8, m
        141   -1.428E+00                                 F               0         Blade 1 Z translation displacement, node 8, m
        142    2.874E+01                                 F               0         Blade 1 X translation displacement, node 9, m
        143   -1.058E+01                                 F               0         Blade 1 Y translation displacement, node 9, m
        144   -1.576E+00                                 F               0         Blade 1 Z translation displacement, node 9, m
        145    2.905E+01                                 F               0         Blade 1 X translation displacement, node 10, m
        146   -1.146E+01                                 F               0         Blade 1 Y translation displacement, node 10, m
        147   -1.725E+00                                 F               0         Blade 1 Z translation displacement, node 10, m
        148    2.936E+01                                 F               0         Blade 1 X translation displacement, node 11, m
        149   -1.235E+01                                 F               0         Blade 1 Y translation displacement, node 11, m
        150   -1.874E+00                                 F               0         Blade 1 Z translation displacement, node 11, m
        151    2.966E+01                                 F               0         Blade 1 X translation displacement, node 12, m
        152   -1.323E+01                                 F               0         Blade 1 Y translation displacement, node 12, m
        153   -2.023E+00                                 F               0         Blade 1 Z translation displacement, node 12, m
        154    2.997E+01                                 F               0         Blade 1 X translation displacement, node 13, m
        155   -1.411E+01                                 F               0         Blade 1 Y translation displacement, node 13, m
        156   -2.172E+00                                 F               0         Blade 1 Z translation displacement, node 13, m
        157    3.028E+01                                 F               0         Blade 1 X translation displacement, node 14, m
        158   -1.499E+01                                 F               0         Blade 1 Y translation displacement, node 14, m
        159   -2.321E+00                                 F               0         Blade 1 Z translation displacement, node 14, m
        160    3.059E+01                                 F               0         Blade 1 X translation displacement, node 15, m
        161   -1.588E+01                                 F               0         Blade 1 Y translation displacement, node 15, m
        162   -2.470E+00                                 F               0         Blade 1 Z translation displacement, node 15, m
        163    3.090E+01                                 F               0         Blade 1 X translation displacement, node 16, m
        164   -1.676E+01                                 F               0         Blade 1 Y translation displacement, node 16, m
        165   -2.619E+00                                 F               0         Blade 1 Z translation displacement, node 16, m
        166    3.121E+01                                 F               0         Blade 1 X translation displacement, node 17, m
        167   -1.764E+01                                 F               0         Blade 1 Y translation displacement, node 17, m
        168   -2.768E+00                                 F               0         Blade 1 Z translation displacement, node 17, m
        169    3.151E+01                                 F               0         Blade 1 X translation displacement, node 18, m
        170   -1.853E+01                                 F               0         Blade 1 Y translation displacement, node 18, m
        171   -2.917E+00                                 F               0         Blade 1 Z translation displacement, node 18, m
        172    3.182E+01                                 F               0         Blade 1 X translation displacement, node 19, m
        173   -1.941E+01                                 F               0         Blade 1 Y translation displacement, node 19, m
        174   -3.065E+00                                 F               0         Blade 1 Z translation displacement, node 19, m
        175    3.213E+01                                 F               0         Blade 1 X translation displacement, node 20, m
        176   -2.029E+01                                 F               0         Blade 1 Y translation displacement, node 20, m
        177   -3.214E+00                                 F               0         Blade 1 Z translation displacement, node 20, m
        178    3.244E+01                                 F               0         Blade 1 X translation displacement, node 21, m
        179   -2.117E+01                                 F               0         Blade 1 Y translation displacement, node 21, m
        180   -3.363E+00                                 F               0         Blade 1 Z translation displacement, node 21, m
        181    3.275E+01                                 F               0         Blade 1 X translation displacement, node 22, m
        182   -2.206E+01                                 F               0         Blade 1 Y translation displacement, node 22, m
        183   -3.512E+00                                 F               0         Blade 1 Z translation displacement, node 22, m
        184    3.306E+01                                 F               0         Blade 1 X translation displacement, node 23, m
        185   -2.294E+01                                 F               0         Blade 1 Y translation displacement, node 23, m
        186   -3.661E+00                                 F               0         Blade 1 Z translation displacement, node 23, m
        187    3.336E+01                                 F               0         Blade 1 X translation displacement, node 24, m
        188   -2.382E+01                                 F               0         Blade 1 Y translation displacement, node 24, m
        189   -3.810E+00                                 F               0         Blade 1 Z translation displacement, node 24, m
        190    3.367E+01                                 F               0         Blade 1 X translation displacement, node 25, m
        191   -2.470E+01                                 F               0         Blade 1 Y translation displacement, node 25, m
        192   -3.959E+00                                 F               0         Blade 1 Z translation displacement, node 25, m
        193    3.398E+01                                 F               0         Blade 1 X translation displacement, node 26, m
        194   -2.559E+01                                 F               0         Blade 1 Y translation displacement, node 26, m
        195   -4.108E+00                                 F               0         Blade 1 Z translation displacement, node 26, m
        196    3.429E+01                                 F               0         Blade 1 X translation displacement, node 27, m
        197   -2.647E+01                                 F               0         Blade 1 Y translation displacement, node 27, m
        198   -4.257E+00                                 F               0         Blade 1 Z translation displacement, node 27, m
        199    3.455E+01                                 F               0         Blade 1 X translation displacement, node 28, m
        200   -2.722E+01                                 F               0         Blade 1 Y translation displacement, node 28, m
        201   -4.383E+00                                 F               0         Blade 1 Z translation displacement, node 28, m
        202    8.399E-01, -4.686E-01, -2.737E-01         F               0         Blade 1 X orientation angle, node 1, rad
        203    5.105E-01,  8.534E-01,  1.053E-01         F               0         Blade 1 Y orientation angle, node 1, rad
        204    1.842E-01, -2.282E-01,  9.560E-01         F               0         Blade 1 Z orientation angle, node 1, rad
        205    8.399E-01, -4.686E-01, -2.737E-01         F               0         Blade 1 X orientation angle, node 2, rad
        206    5.105E-01,  8.534E-01,  1.053E-01         F               0         Blade 1 Y orientation angle, node 2, rad
        207    1.842E-01, -2.282E-01,  9.560E-01         F               0         Blade 1 Z orientation angle, node 2, rad
        208    9.370E-01, -2.530E-01, -2.410E-01         F               0         Blade 1 X orientation angle, node 3, rad
        209    2.969E-01,  9.402E-01,  1.672E-01         F               0         Blade 1 Y orientation angle, node 3, rad
        210    1.842E-01, -2.282E-01,  9.560E-01         F               0         Blade 1 Z orientation angle, node 3, rad
        211    9.487E-01, -2.131E-01, -2.337E-01         F               0         Blade 1 X orientation angle, node 4, rad
        212    2.570E-01,  9.500E-01,  1.772E-01         F               0         Blade 1 Y orientation angle, node 4, rad
        213    1.842E-01, -2.282E-01,  9.560E-01         F               0         Blade 1 Z orientation angle, node 4, rad
        214    9.567E-01, -1.815E-01, -2.277E-01         F               0         Blade 1 X orientation angle, node 5, rad
        215    2.254E-01,  9.566E-01,  1.849E-01         F               0         Blade 1 Y orientation angle, node 5, rad
        216    1.842E-01, -2.282E-01,  9.560E-01         F               0         Blade 1 Z orientation angle, node 5, rad
        217    9.623E-01, -1.560E-01, -2.227E-01         F               0         Blade 1 X orientation angle, node 6, rad
        218    2.000E-01,  9.610E-01,  1.909E-01         F               0         Blade 1 Y orientation angle, node 6, rad
        219    1.842E-01, -2.282E-01,  9.560E-01         F               0         Blade 1 Z orientation angle, node 6, rad
        220    9.665E-01, -1.350E-01, -2.185E-01         F               0         Blade 1 X orientation angle, node 7, rad
        221    1.789E-01,  9.642E-01,  1.957E-01         F               0         Blade 1 Y orientation angle, node 7, rad
        222    1.842E-01, -2.282E-01,  9.560E-01         F               0         Blade 1 Z orientation angle, node 7, rad
        223    9.695E-01, -1.175E-01, -2.149E-01         F               0         Blade 1 X orientation angle, node 8, rad
        224    1.614E-01,  9.665E-01,  1.996E-01         F               0         Blade 1 Y orientation angle, node 8, rad
        225    1.842E-01, -2.282E-01,  9.560E-01         F               0         Blade 1 Z orientation angle, node 8, rad
        226    9.719E-01, -1.026E-01, -2.118E-01         F               0         Blade 1 X orientation angle, node 9, rad
        227    1.464E-01,  9.682E-01,  2.029E-01         F               0         Blade 1 Y orientation angle, node 9, rad