
Linearized model: Predictions were generated on 06-Feb-2024 at 08:44:08 using OpenFAST, compiled as a 64-bit application using single precision at commit v3.5.1
 linked with  NWTC Subroutine Library; ElastoDyn; InflowWind; AeroDyn; ServoDyn; HydroDyn; MAP++ (<1.20.10>, <Oct-20-2023>)

Description from the FAST input file: CCT-9 Campign 4 model. Input files to be run with OpenFAST 3.5.0. GitHub branch from Lu Wang (https://github.com/luwang00/openfast/tree/dev) compiled on March 7, 2023.

Simulation information:
   Simulation time:                  2506.3750 s
   Rotor Speed:                         0.8851 rad/s
   Azimuth:                             2.5126 rad
   Wind Speed:                         10.0000 m/s
   Number of continuous states:        22
   Number of discrete states:           0
   Number of constraint states:         0
   Number of inputs:                 3988
   Number of outputs:                  36
   Jacobians included in this file?    No

Order of continuous states:
   Row/Column Operating Point                     Rotating Frame? Derivative Order Description
   ---------- ---------------                     --------------- ---------------- -----------
          1    1.247E+01                                 F               2         ED Platform horizontal surge translation DOF (internal DOF index = DOF_Sg), m
          2    2.651E-02                                 F               2         ED Platform horizontal sway translation DOF (internal DOF index = DOF_Sw), m
          3   -1.275E-01                                 F               2         ED Platform vertical heave translation DOF (internal DOF index = DOF_Hv), m
          4   -3.167E-03                                 F               2         ED Platform roll tilt rotation DOF (internal DOF index = DOF_R), rad
          5    7.854E-02                                 F               2         ED Platform pitch tilt rotation DOF (internal DOF index = DOF_P), rad
          6    1.303E-03                                 F               2         ED Platform yaw rotation DOF (internal DOF index = DOF_Y), rad
          7    6.088E-01                                 F               2         ED 1st tower fore-aft bending mode DOF (internal DOF index = DOF_TFA1), m
          8   -2.046E-02                                 F               2         ED 1st tower side-to-side bending mode DOF (internal DOF index = DOF_TSS1), m
          9    1.433E-03                                 F               2         ED 2nd tower fore-aft bending mode DOF (internal DOF index = DOF_TFA2), m
         10   -8.027E-06                                 F               2         ED 2nd tower side-to-side bending mode DOF (internal DOF index = DOF_TSS2), m
         11    9.418E-01                                 F               2         ED Variable speed generator DOF (internal DOF index = DOF_GeAz), rad
         12    2.063E-04                                 F               2         ED First time derivative of Platform horizontal surge translation DOF (internal DOF index = DOF_Sg), m/s
         13    4.046E-04                                 F               2         ED First time derivative of Platform horizontal sway translation DOF (internal DOF index = DOF_Sw), m/s
         14   -9.005E-04                                 F               2         ED First time derivative of Platform vertical heave translation DOF (internal DOF index = DOF_Hv), m/s
         15   -7.556E-05                                 F               2         ED First time derivative of Platform roll tilt rotation DOF (internal DOF index = DOF_R), rad/s
         16    1.468E-05                                 F               2         ED First time derivative of Platform pitch tilt rotation DOF (internal DOF index = DOF_P), rad/s
         17   -1.153E-04                                 F               2         ED First time derivative of Platform yaw rotation DOF (internal DOF index = DOF_Y), rad/s
         18   -1.438E-04                                 F               2         ED First time derivative of 1st tower fore-aft bending mode DOF (internal DOF index = DOF_TFA1), m/s
         19    1.341E-03                                 F               2         ED First time derivative of 1st tower side-to-side bending mode DOF (internal DOF index = DOF_TSS1), m/s
         20    4.040E-06                                 F               2         ED First time derivative of 2nd tower fore-aft bending mode DOF (internal DOF index = DOF_TFA2), m/s
         21   -8.441E-07                                 F               2         ED First time derivative of 2nd tower side-to-side bending mode DOF (internal DOF index = DOF_TSS2), m/s
         22    8.851E-01                                 F               2         ED First time derivative of Variable speed generator DOF (internal DOF index = DOF_GeAz), rad/s

Order of continuous state derivatives:
   Row/Column Operating Point                     Rotating Frame? Derivative Order Description
   ---------- ---------------                     --------------- ---------------- -----------
          1    2.063E-04                                 F               2         First time derivative of ED Platform horizontal surge translation DOF (internal DOF index = DOF_Sg), m/s
          2    4.046E-04                                 F               2         First time derivative of ED Platform horizontal sway translation DOF (internal DOF index = DOF_Sw), m/s
          3   -9.005E-04                                 F               2         First time derivative of ED Platform vertical heave translation DOF (internal DOF index = DOF_Hv), m/s
          4   -7.556E-05                                 F               2         First time derivative of ED Platform roll tilt rotation DOF (internal DOF index = DOF_R), rad/s
          5    1.468E-05                                 F               2         First time derivative of ED Platform pitch tilt rotation DOF (internal DOF index = DOF_P), rad/s
          6   -1.153E-04                                 F               2         First time derivative of ED Platform yaw rotation DOF (internal DOF index = DOF_Y), rad/s
          7   -1.438E-04                                 F               2         First time derivative of ED 1st tower fore-aft bending mode DOF (internal DOF index = DOF_TFA1), m/s
          8    1.341E-03                                 F               2         First time derivative of ED 1st tower side-to-side bending mode DOF (internal DOF index = DOF_TSS1), m/s
          9    4.040E-06                                 F               2         First time derivative of ED 2nd tower fore-aft bending mode DOF (internal DOF index = DOF_TFA2), m/s
         10   -8.441E-07                                 F               2         First time derivative of ED 2nd tower side-to-side bending mode DOF (internal DOF index = DOF_TSS2), m/s
         11    8.851E-01                                 F               2         First time derivative of ED Variable speed generator DOF (internal DOF index = DOF_GeAz), rad/s
         12    3.479E-04                                 F               2         First time derivative of ED First time derivative of Platform horizontal surge translation DOF (internal DOF index = DOF_Sg), m/s/s
         13   -3.943E-04                                 F               2         First time derivative of ED First time derivative of Platform horizontal sway translation DOF (internal DOF index = DOF_Sw), m/s/s
         14   -6.110E-04                                 F               2         First time derivative of ED First time derivative of Platform vertical heave translation DOF (internal DOF index = DOF_Hv), m/s/s
         15    1.371E-04                                 F               2         First time derivative of ED First time derivative of Platform roll tilt rotation DOF (internal DOF index = DOF_R), rad/s/s
         16    2.188E-05                                 F               2         First time derivative of ED First time derivative of Platform pitch tilt rotation DOF (internal DOF index = DOF_P), rad/s/s
         17   -4.511E-05                                 F               2         First time derivative of ED First time derivative of Platform yaw rotation DOF (internal DOF index = DOF_Y), rad/s/s
         18   -5.440E-03                                 F               2         First time derivative of ED First time derivative of 1st tower fore-aft bending mode DOF (internal DOF index = DOF_TFA1), m/s/s
         19    1.799E-03                                 F               2         First time derivative of ED First time derivative of 1st tower side-to-side bending mode DOF (internal DOF index = DOF_TSS1), m/s/s
         20   -2.365E-07                                 F               2         First time derivative of ED First time derivative of 2nd tower fore-aft bending mode DOF (internal DOF index = DOF_TFA2), m/s/s
         21    2.238E-06                                 F               2         First time derivative of ED First time derivative of 2nd tower side-to-side bending mode DOF (internal DOF index = DOF_TSS2), m/s/s
         22   -4.566E-06                                 F               2         First time derivative of ED First time derivative of Variable speed generator DOF (internal DOF index = DOF_GeAz), rad/s/s

Order of inputs:
     Column   Operating Point                     Rotating Frame? Derivative Order Description
   ---------- ---------------                     --------------- ---------------- -----------
          1   -1.080E+01                                 F               0         IfW X-component position of node 1 (hub), m
          2    0.000E+00                                 F               0         IfW Y-component position of node 1 (hub), m
          3    1.497E+02                                 F               0         IfW Z-component position of node 1 (hub), m
          4    1.326E+01                                 F               0         IfW X-component position of node 2 (blade 1, node 1), m
          5   -2.758E+00                                 F               0         IfW Y-component position of node 2 (blade 1, node 1), m
          6    1.456E+02                                 F               0         IfW Z-component position of node 2 (blade 1, node 1), m
          7    1.305E+01                                 F               0         IfW X-component position of node 3 (blade 1, node 2), m
          8   -3.547E+00                                 F               0         IfW Y-component position of node 3 (blade 1, node 2), m
          9    1.446E+02                                 F               0         IfW Z-component position of node 3 (blade 1, node 2), m
         10    1.029E+01                                 F               0         IfW X-component position of node 4 (blade 1, node 3), m
         11   -1.428E+01                                 F               0         IfW Y-component position of node 4 (blade 1, node 3), m
         12    1.302E+02                                 F               0         IfW Z-component position of node 4 (blade 1, node 3), m
         13    9.706E+00                                 F               0         IfW X-component position of node 5 (blade 1, node 4), m
         14   -1.657E+01                                 F               0         IfW Y-component position of node 5 (blade 1, node 4), m
         15    1.271E+02                                 F               0         IfW Z-component position of node 5 (blade 1, node 4), m
         16    9.118E+00                                 F               0         IfW X-component position of node 6 (blade 1, node 5), m
         17   -1.885E+01                                 F               0         IfW Y-component position of node 6 (blade 1, node 5), m
         18    1.241E+02                                 F               0         IfW Z-component position of node 6 (blade 1, node 5), m
         19    8.530E+00                                 F               0         IfW X-component position of node 7 (blade 1, node 6), m
         20   -2.114E+01                                 F               0         IfW Y-component position of node 7 (blade 1, node 6), m
         21    1.210E+02                                 F               0         IfW Z-component position of node 7 (blade 1, node 6), m
         22    7.942E+00                                 F               0         IfW X-component position of node 8 (blade 1, node 7), m
         23   -2.343E+01                                 F               0         IfW Y-component position of node 8 (blade 1, node 7), m
         24    1.179E+02                                 F               0         IfW Z-component position of node 8 (blade 1, node 7), m
         25    7.354E+00                                 F               0         IfW X-component position of node 9 (blade 1, node 8), m
         26   -2.571E+01                                 F               0         IfW Y-component position of node 9 (blade 1, node 8), m
         27    1.149E+02                                 F               0         IfW Z-component position of node 9 (blade 1, node 8), m
         28    6.766E+00                                 F               0         IfW X-component position of node 10 (blade 1, node 9), m
         29   -2.800E+01                                 F               0         IfW Y-component position of node 10 (blade 1, node 9), m
         30    1.118E+02                                 F               0         IfW Z-component position of node 10 (blade 1, node 9), m
         31    6.178E+00                                 F               0         IfW X-component position of node 11 (blade 1, node 10), m
         32   -3.029E+01                                 F               0         IfW Y-component position of node 11 (blade 1, node 10), m
         33    1.088E+02                                 F               0         IfW Z-component position of node 11 (blade 1, node 10), m
         34    5.591E+00                                 F               0         IfW X-component position of node 12 (blade 1, node 11), m
         35   -3.257E+01                                 F               0         IfW Y-component position of node 12 (blade 1, node 11), m
         36    1.057E+02                                 F               0         IfW Z-component position of node 12 (blade 1, node 11), m
         37    5.003E+00                                 F               0         IfW X-component position of node 13 (blade 1, node 12), m
         38   -3.486E+01                                 F               0         IfW Y-component position of node 13 (blade 1, node 12), m
         39    1.026E+02                                 F               0         IfW Z-component position of node 13 (blade 1, node 12), m
         40    4.415E+00                                 F               0         IfW X-component position of node 14 (blade 1, node 13), m
         41   -3.715E+01                                 F               0         IfW Y-component position of node 14 (blade 1, node 13), m
         42    9.956E+01                                 F               0         IfW Z-component position of node 14 (blade 1, node 13), m
         43    3.827E+00                                 F               0         IfW X-component position of node 15 (blade 1, node 14), m
         44   -3.943E+01                                 F               0         IfW Y-component position of node 15 (blade 1, node 14), m
         45    9.650E+01                                 F               0         IfW Z-component position of node 15 (blade 1, node 14), m
         46    3.239E+00                                 F               0         IfW X-component position of node 16 (blade 1, node 15), m
         47   -4.172E+01                                 F               0         IfW Y-component position of node 16 (blade 1, node 15), m
         48    9.344E+01                                 F               0         IfW Z-component position of node 16 (blade 1, node 15), m
         49    2.651E+00                                 F               0         IfW X-component position of node 17 (blade 1, node 16), m
         50   -4.401E+01                                 F               0         IfW Y-component position of node 17 (blade 1, node 16), m
         51    9.037E+01                                 F               0         IfW Z-component position of node 17 (blade 1, node 16), m
         52    2.063E+00                                 F               0         IfW X-component position of node 18 (blade 1, node 17), m
         53   -4.629E+01                                 F               0         IfW Y-component position of node 18 (blade 1, node 17), m
         54    8.731E+01                                 F               0         IfW Z-component position of node 18 (blade 1, node 17), m
         55    1.475E+00                                 F               0         IfW X-component position of node 19 (blade 1, node 18), m
         56   -4.858E+01                                 F               0         IfW Y-component position of node 19 (blade 1, node 18), m
         57    8.425E+01                                 F               0         IfW Z-component position of node 19 (blade 1, node 18), m
         58    8.875E-01                                 F               0         IfW X-component position of node 20 (blade 1, node 19), m
         59   -5.087E+01                                 F               0         IfW Y-component position of node 20 (blade 1, node 19), m
         60    8.118E+01                                 F               0         IfW Z-component position of node 20 (blade 1, node 19), m
         61    2.996E-01                                 F               0         IfW X-component position of node 21 (blade 1, node 20), m
         62   -5.315E+01                                 F               0         IfW Y-component position of node 21 (blade 1, node 20), m
         63    7.812E+01                                 F               0         IfW Z-component position of node 21 (blade 1, node 20), m
         64   -2.882E-01                                 F               0         IfW X-component position of node 22 (blade 1, node 21), m
         65   -5.544E+01                                 F               0         IfW Y-component position of node 22 (blade 1, node 21), m
         66    7.505E+01                                 F               0         IfW Z-component position of node 22 (blade 1, node 21), m
         67   -8.762E-01                                 F               0         IfW X-component position of node 23 (blade 1, node 22), m
         68   -5.773E+01                                 F               0         IfW Y-component position of node 23 (blade 1, node 22), m
         69    7.199E+01                                 F               0         IfW Z-component position of node 23 (blade 1, node 22), m
         70   -1.464E+00                                 F               0         IfW X-component position of node 24 (blade 1, node 23), m
         71   -6.001E+01                                 F               0         IfW Y-component position of node 24 (blade 1, node 23), m
         72    6.893E+01                                 F               0         IfW Z-component position of node 24 (blade 1, node 23), m
         73   -2.052E+00                                 F               0         IfW X-component position of node 25 (blade 1, node 24), m
         74   -6.230E+01                                 F               0         IfW Y-component position of node 25 (blade 1, node 24), m
         75    6.586E+01                                 F               0         IfW Z-component position of node 25 (blade 1, node 24), m
         76   -2.640E+00                                 F               0         IfW X-component position of node 26 (blade 1, node 25), m
         77   -6.459E+01                                 F               0         IfW Y-component position of node 26 (blade 1, node 25), m
         78    6.280E+01                                 F               0         IfW Z-component position of node 26 (blade 1, node 25), m
         79   -3.228E+00                                 F               0         IfW X-component position of node 27 (blade 1, node 26), m
         80   -6.687E+01                                 F               0         IfW Y-component position of node 27 (blade 1, node 26), m
         81    5.974E+01                                 F               0         IfW Z-component position of node 27 (blade 1, node 26), m
         82   -3.815E+00                                 F               0         IfW X-component position of node 28 (blade 1, node 27), m
         83   -6.916E+01                                 F               0         IfW Y-component position of node 28 (blade 1, node 27), m
         84    5.667E+01                                 F               0         IfW Z-component position of node 28 (blade 1, node 27), m
         85   -4.314E+00                                 F               0         IfW X-component position of node 29 (blade 1, node 28), m
         86   -7.110E+01                                 F               0         IfW Y-component position of node 29 (blade 1, node 28), m
         87    5.408E+01                                 F               0         IfW Z-component position of node 29 (blade 1, node 28), m
         88    1.398E+01                                 F               0         IfW X-component position of node 30 (blade 2, node 1), m
         89    6.025E+00                                 F               0         IfW Y-component position of node 30 (blade 2, node 1), m
         90    1.494E+02                                 F               0         IfW Z-component position of node 30 (blade 2, node 1), m
         91    1.395E+01                                 F               0         IfW X-component position of node 31 (blade 2, node 2), m
         92    7.352E+00                                 F               0         IfW Y-component position of node 31 (blade 2, node 2), m
         93    1.493E+02                                 F               0         IfW Z-component position of node 31 (blade 2, node 2), m
         94    1.356E+01                                 F               0         IfW X-component position of node 32 (blade 2, node 3), m
         95    2.540E+01                                 F               0         IfW Y-component position of node 32 (blade 2, node 3), m
         96    1.474E+02                                 F               0         IfW Z-component position of node 32 (blade 2, node 3), m
         97    1.348E+01                                 F               0         IfW X-component position of node 33 (blade 2, node 4), m
         98    2.924E+01                                 F               0         IfW Y-component position of node 33 (blade 2, node 4), m
         99    1.469E+02                                 F               0         IfW Z-component position of node 33 (blade 2, node 4), m
        100    1.340E+01                                 F               0         IfW X-component position of node 34 (blade 2, node 5), m
        101    3.309E+01                                 F               0         IfW Y-component position of node 34 (blade 2, node 5), m
        102    1.465E+02                                 F               0         IfW Z-component position of node 34 (blade 2, node 5), m
        103    1.332E+01                                 F               0         IfW X-component position of node 35 (blade 2, node 6), m
        104    3.693E+01                                 F               0         IfW Y-component position of node 35 (blade 2, node 6), m
        105    1.461E+02                                 F               0         IfW Z-component position of node 35 (blade 2, node 6), m
        106    1.323E+01                                 F               0         IfW X-component position of node 36 (blade 2, node 7), m
        107    4.078E+01                                 F               0         IfW Y-component position of node 36 (blade 2, node 7), m
        108    1.457E+02                                 F               0         IfW Z-component position of node 36 (blade 2, node 7), m
        109    1.315E+01                                 F               0         IfW X-component position of node 37 (blade 2, node 8), m
        110    4.462E+01                                 F               0         IfW Y-component position of node 37 (blade 2, node 8), m
        111    1.453E+02                                 F               0         IfW Z-component position of node 37 (blade 2, node 8), m
        112    1.307E+01                                 F               0         IfW X-component position of node 38 (blade 2, node 9), m
        113    4.847E+01                                 F               0         IfW Y-component position of node 38 (blade 2, node 9), m
        114    1.449E+02                                 F               0         IfW Z-component position of node 38 (blade 2, node 9), m
        115    1.299E+01                                 F               0         IfW X-component position of node 39 (blade 2, node 10), m
        116    5.231E+01                                 F               0         IfW Y-component position of node 39 (blade 2, node 10), m
        117    1.445E+02                                 F               0         IfW Z-component position of node 39 (blade 2, node 10), m
        118    1.290E+01                                 F               0         IfW X-component position of node 40 (blade 2, node 11), m
        119    5.615E+01                                 F               0         IfW Y-component position of node 40 (blade 2, node 11), m
        120    1.441E+02                                 F               0         IfW Z-component position of node 40 (blade 2, node 11), m
        121    1.282E+01                                 F               0         IfW X-component position of node 41 (blade 2, node 12), m
        122    6.000E+01                                 F               0         IfW Y-component position of node 41 (blade 2, node 12), m
        123    1.436E+02                                 F               0         IfW Z-component position of node 41 (blade 2, node 12), m
        124    1.274E+01                                 F               0         IfW X-component position of node 42 (blade 2, node 13), m
        125    6.384E+01                                 F               0         IfW Y-component position of node 42 (blade 2, node 13), m
        126    1.432E+02                                 F               0         IfW Z-component position of node 42 (blade 2, node 13), m
        127    1.266E+01                                 F               0         IfW X-component position of node 43 (blade 2, node 14), m
        128    6.769E+01                                 F               0         IfW Y-component position of node 43 (blade 2, node 14), m
        129    1.428E+02                                 F               0         IfW Z-component position of node 43 (blade 2, node 14), m
        130    1.257E+01                                 F               0         IfW X-component position of node 44 (blade 2, node 15), m
        131    7.153E+01                                 F               0         IfW Y-component position of node 44 (blade 2, node 15), m
        132    1.424E+02                                 F               0         IfW Z-component position of node 44 (blade 2, node 15), m
        133    1.249E+01                                 F               0         IfW X-component position of node 45 (blade 2, node 16), m
        134    7.538E+01                                 F               0         IfW Y-component position of node 45 (blade 2, node 16), m
        135    1.420E+02                                 F               0         IfW Z-component position of node 45 (blade 2, node 16), m
        136    1.241E+01                                 F               0         IfW X-component position of node 46 (blade 2, node 17), m
        137    7.922E+01                                 F               0         IfW Y-component position of node 46 (blade 2, node 17), m
        138    1.416E+02                                 F               0         IfW Z-component position of node 46 (blade 2, node 17), m
        139    1.233E+01                                 F               0         IfW X-component position of node 47 (blade 2, node 18), m
        140    8.307E+01                                 F               0         IfW Y-component position of node 47 (blade 2, node 18), m
        141    1.412E+02                                 F               0         IfW Z-component position of node 47 (blade 2, node 18), m
        142    1.224E+01                                 F               0         IfW X-component position of node 48 (blade 2, node 19), m
        143    8.691E+01                                 F               0         IfW Y-component position of node 48 (blade 2, node 19), m
        144    1.408E+02                                 F               0         IfW Z-component position of node 48 (blade 2, node 19), m