
Linearized model: Predictions were generated on 06-Feb-2024 at 08:44:08 using OpenFAST, compiled as a 64-bit application using single precision at commit v3.5.1
 linked with  NWTC Subroutine Library; ElastoDyn; InflowWind; AeroDyn; ServoDyn; HydroDyn; MAP++ (<1.20.10>, <Oct-20-2023>)

Description from the FAST input file: CCT-9 Campign 4 model. Input files to be run with OpenFAST 3.5.0. GitHub branch from Lu Wang (https://github.com/luwang00/openfast/tree/dev) compiled on March 7, 2023.

Simulation information:
   Simulation time:                  2502.4000 s
   Rotor Speed:                         0.8857 rad/s
   Azimuth:                             5.2766 rad
   Wind Speed:                         10.0000 m/s
   Number of continuous states:         0
   Number of discrete states:           0
   Number of constraint states:         0
   Number of inputs:                 1746
   Number of outputs:                   4
   Jacobians included in this file?    No

Order of inputs:
     Column   Operating Point                     Rotating Frame? Derivative Order Description
   ---------- ---------------                     --------------- ---------------- -----------
          1    1.391E+01                                 F               0         Tower X translation displacement, node 1, m
          2    6.260E-02                                 F               0         Tower Y translation displacement, node 1, m
          3   -1.845E-01                                 F               0         Tower Z translation displacement, node 1, m
          4    1.488E+01                                 F               0         Tower X translation displacement, node 2, m
          5    8.844E-02                                 F               0         Tower Y translation displacement, node 2, m
          6   -2.231E-01                                 F               0         Tower Z translation displacement, node 2, m
          7    1.588E+01                                 F               0         Tower X translation displacement, node 3, m
          8    1.147E-01                                 F               0         Tower Y translation displacement, node 3, m
          9   -2.633E-01                                 F               0         Tower Z translation displacement, node 3, m
         10    1.689E+01                                 F               0         Tower X translation displacement, node 4, m
         11    1.414E-01                                 F               0         Tower Y translation displacement, node 4, m
         12   -3.047E-01                                 F               0         Tower Z translation displacement, node 4, m
         13    1.791E+01                                 F               0         Tower X translation displacement, node 5, m
         14    1.684E-01                                 F               0         Tower Y translation displacement, node 5, m
         15   -3.471E-01                                 F               0         Tower Z translation displacement, node 5, m
         16    1.894E+01                                 F               0         Tower X translation displacement, node 6, m
         17    1.956E-01                                 F               0         Tower Y translation displacement, node 6, m
         18   -3.904E-01                                 F               0         Tower Z translation displacement, node 6, m
         19    1.998E+01                                 F               0         Tower X translation displacement, node 7, m
         20    2.231E-01                                 F               0         Tower Y translation displacement, node 7, m
         21   -4.343E-01                                 F               0         Tower Z translation displacement, node 7, m
         22    2.103E+01                                 F               0         Tower X translation displacement, node 8, m
         23    2.507E-01                                 F               0         Tower Y translation displacement, node 8, m
         24   -4.787E-01                                 F               0         Tower Z translation displacement, node 8, m
         25    2.208E+01                                 F               0         Tower X translation displacement, node 9, m
         26    2.785E-01                                 F               0         Tower Y translation displacement, node 9, m
         27   -5.234E-01                                 F               0         Tower Z translation displacement, node 9, m
         28    2.313E+01                                 F               0         Tower X translation displacement, node 10, m
         29    3.063E-01                                 F               0         Tower Y translation displacement, node 10, m
         30   -5.683E-01                                 F               0         Tower Z translation displacement, node 10, m
         31    2.418E+01                                 F               0         Tower X translation displacement, node 11, m
         32    3.343E-01                                 F               0         Tower Y translation displacement, node 11, m
         33   -6.134E-01                                 F               0         Tower Z translation displacement, node 11, m
         34    9.969E-01,  1.274E-03, -7.829E-02         F               0         Tower X orientation angle, node 1, rad
         35   -1.433E-03,  1.000E+00, -1.971E-03         F               0         Tower Y orientation angle, node 1, rad
         36    7.828E-02,  2.077E-03,  9.969E-01         F               0         Tower Z orientation angle, node 1, rad
         37    9.968E-01,  1.271E-03, -7.982E-02         F               0         Tower X orientation angle, node 2, rad
         38   -1.435E-03,  1.000E+00, -2.003E-03         F               0         Tower Y orientation angle, node 2, rad
         39    7.982E-02,  2.111E-03,  9.968E-01         F               0         Tower Z orientation angle, node 2, rad
         40    9.967E-01,  1.268E-03, -8.116E-02         F               0         Tower X orientation angle, node 3, rad
         41   -1.438E-03,  1.000E+00, -2.033E-03         F               0         Tower Y orientation angle, node 3, rad
         42    8.115E-02,  2.143E-03,  9.967E-01         F               0         Tower Z orientation angle, node 3, rad
         43    9.966E-01,  1.266E-03, -8.228E-02         F               0         Tower X orientation angle, node 4, rad
         44   -1.440E-03,  1.000E+00, -2.059E-03         F               0         Tower Y orientation angle, node 4, rad
         45    8.227E-02,  2.170E-03,  9.966E-01         F               0         Tower Z orientation angle, node 4, rad
         46    9.965E-01,  1.264E-03, -8.319E-02         F               0         Tower X orientation angle, node 5, rad
         47   -1.442E-03,  1.000E+00, -2.081E-03         F               0         Tower Y orientation angle, node 5, rad
         48    8.319E-02,  2.194E-03,  9.965E-01         F               0         Tower Z orientation angle, node 5, rad
         49    9.965E-01,  1.262E-03, -8.391E-02         F               0         Tower X orientation angle, node 6, rad
         50   -1.443E-03,  1.000E+00, -2.100E-03         F               0         Tower Y orientation angle, node 6, rad
         51    8.391E-02,  2.214E-03,  9.965E-01         F               0         Tower Z orientation angle, node 6, rad
         52    9.964E-01,  1.261E-03, -8.444E-02         F               0         Tower X orientation angle, node 7, rad
         53   -1.445E-03,  1.000E+00, -2.115E-03         F               0         Tower Y orientation angle, node 7, rad
         54    8.444E-02,  2.230E-03,  9.964E-01         F               0         Tower Z orientation angle, node 7, rad
         55    9.964E-01,  1.260E-03, -8.483E-02         F               0         Tower X orientation angle, node 8, rad
         56   -1.446E-03,  1.000E+00, -2.127E-03         F               0         Tower Y orientation angle, node 8, rad
         57    8.482E-02,  2.242E-03,  9.964E-01         F               0         Tower Z orientation angle, node 8, rad
         58    9.964E-01,  1.259E-03, -8.508E-02         F               0         Tower X orientation angle, node 9, rad
         59   -1.446E-03,  1.000E+00, -2.136E-03         F               0         Tower Y orientation angle, node 9, rad
         60    8.508E-02,  2.252E-03,  9.964E-01         F               0         Tower Z orientation angle, node 9, rad
         61    9.964E-01,  1.259E-03, -8.524E-02         F               0         Tower X orientation angle, node 10, rad
         62   -1.447E-03,  1.000E+00, -2.142E-03         F               0         Tower Y orientation angle, node 10, rad
         63    8.523E-02,  2.258E-03,  9.964E-01         F               0         Tower Z orientation angle, node 10, rad
         64    9.964E-01,  1.259E-03, -8.531E-02         F               0         Tower X orientation angle, node 11, rad
         65   -1.447E-03,  1.000E+00, -2.145E-03         F               0         Tower Y orientation angle, node 11, rad
         66    8.531E-02,  2.261E-03,  9.964E-01         F               0         Tower Z orientation angle, node 11, rad
         67    2.366E-04                                 F               0         Tower X translation velocity, node 1, m/s
         68    7.816E-03                                 F               0         Tower Y translation velocity, node 1, m/s
         69    1.293E-03                                 F               0         Tower Z translation velocity, node 1, m/s
         70    2.592E-04                                 F               0         Tower X translation velocity, node 2, m/s
         71    1.317E-02                                 F               0         Tower Y translation velocity, node 2, m/s
         72    1.280E-03                                 F               0         Tower Z translation velocity, node 2, m/s
         73    2.268E-04                                 F               0         Tower X translation velocity, node 3, m/s
         74    1.862E-02                                 F               0         Tower Y translation velocity, node 3, m/s
         75    1.271E-03                                 F               0         Tower Z translation velocity, node 3, m/s
         76    1.533E-04                                 F               0         Tower X translation velocity, node 4, m/s
         77    2.416E-02                                 F               0         Tower Y translation velocity, node 4, m/s
         78    1.265E-03                                 F               0         Tower Z translation velocity, node 4, m/s
         79    4.619E-05                                 F               0         Tower X translation velocity, node 5, m/s
         80    2.977E-02                                 F               0         Tower Y translation velocity, node 5, m/s
         81    1.261E-03                                 F               0         Tower Z translation velocity, node 5, m/s
         82   -8.735E-05                                 F               0         Tower X translation velocity, node 6, m/s
         83    3.545E-02                                 F               0         Tower Y translation velocity, node 6, m/s
         84    1.260E-03                                 F               0         Tower Z translation velocity, node 6, m/s
         85   -2.396E-04                                 F               0         Tower X translation velocity, node 7, m/s
         86    4.117E-02                                 F               0         Tower Y translation velocity, node 7, m/s
         87    1.260E-03                                 F               0         Tower Z translation velocity, node 7, m/s
         88   -4.070E-04                                 F               0         Tower X translation velocity, node 8, m/s
         89    4.693E-02                                 F               0         Tower Y translation velocity, node 8, m/s
         90    1.261E-03                                 F               0         Tower Z translation velocity, node 8, m/s
         91   -5.846E-04                                 F               0         Tower X translation velocity, node 9, m/s
         92    5.272E-02                                 F               0         Tower Y translation velocity, node 9, m/s
         93    1.264E-03                                 F               0         Tower Z translation velocity, node 9, m/s
         94   -7.686E-04                                 F               0         Tower X translation velocity, node 10, m/s
         95    5.854E-02                                 F               0         Tower Y translation velocity, node 10, m/s
         96    1.266E-03                                 F               0         Tower Z translation velocity, node 10, m/s
         97   -9.558E-04                                 F               0         Tower X translation velocity, node 11, m/s
         98    6.437E-02                                 F               0         Tower Y translation velocity, node 11, m/s
         99    1.269E-03                                 F               0         Tower Z translation velocity, node 11, m/s
        100    2.489E+01                                 F               0         Hub X translation displacement, node 1, m
        101    3.384E-01                                 F               0         Hub Y translation displacement, node 1, m
        102    2.794E-01                                 F               0         Hub Z translation displacement, node 1, m
        103    9.820E-01,  1.015E-03, -1.890E-01         F               0         Hub X orientation angle, node 1, rad
        104   -1.605E-01,  5.328E-01, -8.309E-01         F               0         Hub Y orientation angle, node 1, rad
        105    9.984E-02,  8.463E-01,  5.233E-01         F               0         Hub Z orientation angle, node 1, rad
        106    8.693E-01                                 F               0         Hub X rotation velocity, node 1, rad/s
        107    8.844E-04                                 F               0         Hub Y rotation velocity, node 1, rad/s
        108   -1.673E-01                                 F               0         Hub Z rotation velocity, node 1, rad/s
        109    9.863E-01, -1.479E-02, -1.643E-01         F               0         Blade root 1 X orientation angle, node 1, rad
        110   -1.313E-01,  5.326E-01, -8.362E-01         F               0         Blade root 1 Y orientation angle, node 1, rad
        111    9.984E-02,  8.463E-01,  5.233E-01         F               0         Blade root 1 Z orientation angle, node 1, rad
        112    9.766E-01, -1.282E-02, -2.147E-01         F               0         Blade root 2 X orientation angle, node 1, rad
        113    1.958E-01,  4.663E-01,  8.627E-01         F               0         Blade root 2 Y orientation angle, node 1, rad
        114    8.905E-02, -8.845E-01,  4.579E-01         F               0         Blade root 2 Z orientation angle, node 1, rad
        115    9.817E-01,  3.066E-02, -1.878E-01         F               0         Blade root 3 X orientation angle, node 1, rad
        116    2.290E-02, -9.988E-01, -4.335E-02         F               0         Blade root 3 Y orientation angle, node 1, rad
        117   -1.889E-01,  3.825E-02, -9.813E-01         F               0         Blade root 3 Z orientation angle, node 1, rad
        118    2.487E+01                                 F               0         Blade 1 X translation displacement, node 1, m
        119    5.027E+00                                 F               0         Blade 1 Y translation displacement, node 1, m
        120   -2.331E+00                                 F               0         Blade 1 Z translation displacement, node 1, m
        121    2.486E+01                                 F               0         Blade 1 X translation displacement, node 2, m
        122    6.156E+00                                 F               0         Blade 1 Y translation displacement, node 2, m
        123   -2.960E+00                                 F               0         Blade 1 Z translation displacement, node 2, m
        124    2.478E+01                                 F               0         Blade 1 X translation displacement, node 3, m
        125    2.152E+01                                 F               0         Blade 1 Y translation displacement, node 3, m
        126   -1.151E+01                                 F               0         Blade 1 Z translation displacement, node 3, m
        127    2.476E+01                                 F               0         Blade 1 X translation displacement, node 4, m
        128    2.479E+01                                 F               0         Blade 1 Y translation displacement, node 4, m
        129   -1.334E+01                                 F               0         Blade 1 Z translation displacement, node 4, m
        130    2.474E+01                                 F               0         Blade 1 X translation displacement, node 5, m
        131    2.806E+01                                 F               0         Blade 1 Y translation displacement, node 5, m
        132   -1.516E+01                                 F               0         Blade 1 Z translation displacement, node 5, m
        133    2.472E+01                                 F               0         Blade 1 X translation displacement, node 6, m
        134    3.134E+01                                 F               0         Blade 1 Y translation displacement, node 6, m
        135   -1.698E+01                                 F               0         Blade 1 Z translation displacement, node 6, m
        136    2.470E+01                                 F               0         Blade 1 X translation displacement, node 7, m
        137    3.461E+01                                 F               0         Blade 1 Y translation displacement, node 7, m
        138   -1.880E+01                                 F               0         Blade 1 Z translation displacement, node 7, m
        139    2.469E+01                                 F               0         Blade 1 X translation displacement, node 8, m
        140    3.788E+01                                 F               0         Blade 1 Y translation displacement, node 8, m
        141   -2.063E+01                                 F               0         Blade 1 Z translation displacement, node 8, m
        142    2.467E+01                                 F               0         Blade 1 X translation displacement, node 9, m
        143    4.116E+01                                 F               0         Blade 1 Y translation displacement, node 9, m
        144   -2.245E+01                                 F               0         Blade 1 Z translation displacement, node 9, m
        145    2.465E+01                                 F               0         Blade 1 X translation displacement, node 10, m
        146    4.443E+01                                 F               0         Blade 1 Y translation displacement, node 10, m
        147   -2.427E+01                                 F               0         Blade 1 Z translation displacement, node 10, m
        148    2.463E+01                                 F               0         Blade 1 X translation displacement, node 11, m
        149    4.770E+01                                 F               0         Blade 1 Y translation displacement, node 11, m
        150   -2.609E+01                                 F               0         Blade 1 Z translation displacement, node 11, m
        151    2.461E+01                                 F               0         Blade 1 X translation displacement, node 12, m
        152    5.098E+01                                 F               0         Blade 1 Y translation displacement, node 12, m
        153   -2.792E+01                                 F               0         Blade 1 Z translation displacement, node 12, m
        154    2.460E+01                                 F               0         Blade 1 X translation displacement, node 13, m
        155    5.425E+01                                 F               0         Blade 1 Y translation displacement, node 13, m
        156   -2.974E+01                                 F               0         Blade 1 Z translation displacement, node 13, m
        157    2.458E+01                                 F               0         Blade 1 X translation displacement, node 14, m
        158    5.752E+01                                 F               0         Blade 1 Y translation displacement, node 14, m
        159   -3.156E+01                                 F               0         Blade 1 Z translation displacement, node 14, m
        160    2.456E+01                                 F               0         Blade 1 X translation displacement, node 15, m
        161    6.080E+01                                 F               0         Blade 1 Y translation displacement, node 15, m
        162   -3.338E+01                                 F               0         Blade 1 Z translation displacement, node 15, m
        163    2.454E+01                                 F               0         Blade 1 X translation displacement, node 16, m
        164    6.407E+01                                 F               0         Blade 1 Y translation displacement, node 16, m
        165   -3.521E+01                                 F               0         Blade 1 Z translation displacement, node 16, m
        166    2.452E+01                                 F               0         Blade 1 X translation displacement, node 17, m
        167    6.734E+01                                 F               0         Blade 1 Y translation displacement, node 17, m
        168   -3.703E+01                                 F               0         Blade 1 Z translation displacement, node 17, m
        169    2.450E+01                                 F               0         Blade 1 X translation displacement, node 18, m
        170    7.061E+01                                 F               0         Blade 1 Y translation displacement, node 18, m
        171   -3.885E+01                                 F               0         Blade 1 Z translation displacement, node 18, m
        172    2.449E+01                                 F               0         Blade 1 X translation displacement, node 19, m
        173    7.389E+01                                 F               0         Blade 1 Y translation displacement, node 19, m
        174   -4.067E+01                                 F               0         Blade 1 Z translation displacement, node 19, m
        175    2.447E+01                                 F               0         Blade 1 X translation displacement, node 20, m
        176    7.716E+01                                 F               0         Blade 1 Y translation displacement, node 20, m
        177   -4.250E+01                                 F               0         Blade 1 Z translation displacement, node 20, m
        178    2.445E+01                                 F               0         Blade 1 X translation displacement, node 21, m
        179    8.043E+01                                 F               0         Blade 1 Y translation displacement, node 21, m
        180   -4.432E+01                                 F               0         Blade 1 Z translation displacement, node 21, m
        181    2.443E+01                                 F               0         Blade 1 X translation displacement, node 22, m
        182    8.371E+01                                 F               0         Blade 1 Y translation displacement, node 22, m
        183   -4.614E+01                                 F               0         Blade 1 Z translation displacement, node 22, m
        184    2.441E+01                                 F               0         Blade 1 X translation displacement, node 23, m
        185    8.698E+01                                 F               0         Blade 1 Y translation displacement, node 23, m
        186   -4.796E+01                                 F               0         Blade 1 Z translation displacement, node 23, m
        187    2.440E+01                                 F               0         Blade 1 X translation displacement, node 24, m
        188    9.025E+01                                 F               0         Blade 1 Y translation displacement, node 24, m
        189   -4.978E+01                                 F               0         Blade 1 Z translation displacement, node 24, m
        190    2.438E+01                                 F               0         Blade 1 X translation displacement, node 25, m
        191    9.353E+01                                 F               0         Blade 1 Y translation displacement, node 25, m
        192   -5.161E+01                                 F               0         Blade 1 Z translation displacement, node 25, m
        193    2.436E+01                                 F               0         Blade 1 X translation displacement, node 26, m
        194    9.680E+01                                 F               0         Blade 1 Y translation displacement, node 26, m
        195   -5.343E+01                                 F               0         Blade 1 Z translation displacement, node 26, m
        196    2.434E+01                                 F               0         Blade 1 X translation displacement, node 27, m
        197    1.001E+02                                 F               0         Blade 1 Y translation displacement, node 27, m
        198   -5.525E+01                                 F               0         Blade 1 Z translation displacement, node 27, m
        199    2.433E+01                                 F               0         Blade 1 X translation displacement, node 28, m
        200    1.028E+02                                 F               0         Blade 1 Y translation displacement, node 28, m
        201   -5.680E+01                                 F               0         Blade 1 Z translation displacement, node 28, m
        202    9.376E-01, -2.560E-01,  2.351E-01         F               0         Blade 1 X orientation angle, node 1, rad
        203    3.329E-01,  4.672E-01, -8.191E-01         F               0         Blade 1 Y orientation angle, node 1, rad
        204    9.984E-02,  8.463E-01,  5.233E-01         F               0         Blade 1 Z orientation angle, node 1, rad
        205    9.376E-01, -2.560E-01,  2.351E-01         F               0         Blade 1 X orientation angle, node 2, rad
        206    3.329E-01,  4.672E-01, -8.191E-01         F               0         Blade 1 Y orientation angle, node 2, rad
        207    9.984E-02,  8.463E-01,  5.233E-01         F               0         Blade 1 Z orientation angle, node 2, rad
        208    9.898E-01, -1.380E-01,  3.429E-02         F               0         Blade 1 X orientation angle, node 3, rad
        209    1.012E-01,  5.146E-01, -8.514E-01         F               0         Blade 1 Y orientation angle, node 3, rad
        210    9.984E-02,  8.463E-01,  5.233E-01         F               0         Blade 1 Z orientation angle, node 3, rad
        211    9.932E-01, -1.161E-01, -1.695E-03         F               0         Blade 1 X orientation angle, node 4, rad
        212    5.934E-02,  5.200E-01, -8.521E-01         F               0         Blade 1 Y orientation angle, node 4, rad
        213    9.984E-02,  8.463E-01,  5.233E-01         F               0         Blade 1 Z orientation angle, node 4, rad
        214    9.947E-01, -9.883E-02, -2.995E-02         F               0         Blade 1 X orientation angle, node 5, rad
        215    2.638E-02,  5.235E-01, -8.516E-01         F               0         Blade 1 Y orientation angle, node 5, rad
        216    9.984E-02,  8.463E-01,  5.233E-01         F               0         Blade 1 Z orientation angle, node 5, rad
        217    9.950E-01, -8.491E-02, -5.253E-02         F               0         Blade 1 X orientation angle, node 6, rad
        218   -1.445E-05,  5.260E-01, -8.505E-01         F               0         Blade 1 Y orientation angle, node 6, rad
        219    9.984E-02,  8.463E-01,  5.233E-01         F               0         Blade 1 Z orientation angle, node 6, rad
        220    9.948E-01, -7.342E-02, -7.107E-02         F               0         Blade 1 X orientation angle, node 7, rad
        221   -2.172E-02,  5.277E-01, -8.492E-01         F               0         Blade 1 Y orientation angle, node 7, rad
        222    9.984E-02,  8.463E-01,  5.233E-01         F               0         Blade 1 Z orientation angle, node 7, rad
        223    9.942E-01, -6.383E-02, -8.647E-02         F               0         Blade 1 X orientation angle, node 8, rad
        224   -3.977E-02,  5.289E-01, -8.477E-01         F               0         Blade 1 Y orientation angle, node 8, rad
        225    9.984E-02,  8.463E-01,  5.233E-01         F               0         Blade 1 Z orientation angle, node 8, rad
        226    9.935E-01, -5.570E-02, -9.948E-02         F               0         Blade 1 X orientation angle, node 9, rad
        227   -5.504E-02,  5.298E-01, -8.463E-01         F               0         Blade 1 Y orientation angle, node 9, rad