
Linearized model: Predictions were generated on 06-Feb-2024 at 08:44:08 using OpenFAST, compiled as a 64-bit application using single precision at commit v3.5.1
 linked with  NWTC Subroutine Library; ElastoDyn; InflowWind; AeroDyn; ServoDyn; HydroDyn; MAP++ (<1.20.10>, <Oct-20-2023>)

Description from the FAST input file: CCT-9 Campign 4 model. Input files to be run with OpenFAST 3.5.0. GitHub branch from Lu Wang (https://github.com/luwang00/openfast/tree/dev) compiled on March 7, 2023.

Simulation information:
   Simulation time:                  2504.6000 s
   Rotor Speed:                         0.8852 rad/s
   Azimuth:                             0.9414 rad
   Wind Speed:                         10.0000 m/s
   Number of continuous states:        22
   Number of discrete states:           0
   Number of constraint states:         0
   Number of inputs:                 3988
   Number of outputs:                  36
   Jacobians included in this file?    No

Order of continuous states:
   Row/Column Operating Point                     Rotating Frame? Derivative Order Description
   ---------- ---------------                     --------------- ---------------- -----------
          1    1.247E+01                                 F               2         ED Platform horizontal surge translation DOF (internal DOF index = DOF_Sg), m
          2    2.545E-02                                 F               2         ED Platform horizontal sway translation DOF (internal DOF index = DOF_Sw), m
          3   -1.268E-01                                 F               2         ED Platform vertical heave translation DOF (internal DOF index = DOF_Hv), m
          4   -2.838E-03                                 F               2         ED Platform roll tilt rotation DOF (internal DOF index = DOF_R), rad
          5    7.852E-02                                 F               2         ED Platform pitch tilt rotation DOF (internal DOF index = DOF_P), rad
          6    1.432E-03                                 F               2         ED Platform yaw rotation DOF (internal DOF index = DOF_Y), rad
          7    6.083E-01                                 F               2         ED 1st tower fore-aft bending mode DOF (internal DOF index = DOF_TFA1), m
          8   -1.882E-02                                 F               2         ED 1st tower side-to-side bending mode DOF (internal DOF index = DOF_TSS1), m
          9    1.431E-03                                 F               2         ED 2nd tower fore-aft bending mode DOF (internal DOF index = DOF_TFA2), m
         10   -5.429E-06                                 F               2         ED 2nd tower side-to-side bending mode DOF (internal DOF index = DOF_TSS2), m
         11    5.654E+00                                 F               2         ED Variable speed generator DOF (internal DOF index = DOF_GeAz), rad
         12    2.621E-04                                 F               2         ED First time derivative of Platform horizontal surge translation DOF (internal DOF index = DOF_Sg), m/s
         13    8.238E-04                                 F               2         ED First time derivative of Platform horizontal sway translation DOF (internal DOF index = DOF_Sw), m/s
         14    2.787E-05                                 F               2         ED First time derivative of Platform vertical heave translation DOF (internal DOF index = DOF_Hv), m/s
         15   -2.924E-04                                 F               2         ED First time derivative of Platform roll tilt rotation DOF (internal DOF index = DOF_R), rad/s
         16    1.368E-05                                 F               2         ED First time derivative of Platform pitch tilt rotation DOF (internal DOF index = DOF_P), rad/s
         17   -2.583E-05                                 F               2         ED First time derivative of Platform yaw rotation DOF (internal DOF index = DOF_Y), rad/s
         18   -1.955E-03                                 F               2         ED First time derivative of 1st tower fore-aft bending mode DOF (internal DOF index = DOF_TFA1), m/s
         19   -1.787E-04                                 F               2         ED First time derivative of 1st tower side-to-side bending mode DOF (internal DOF index = DOF_TSS1), m/s
         20   -2.060E-06                                 F               2         ED First time derivative of 2nd tower fore-aft bending mode DOF (internal DOF index = DOF_TFA2), m/s
         21   -2.038E-06                                 F               2         ED First time derivative of 2nd tower side-to-side bending mode DOF (internal DOF index = DOF_TSS2), m/s
         22    8.852E-01                                 F               2         ED First time derivative of Variable speed generator DOF (internal DOF index = DOF_GeAz), rad/s

Order of continuous state derivatives:
   Row/Column Operating Point                     Rotating Frame? Derivative Order Description
   ---------- ---------------                     --------------- ---------------- -----------
          1    2.621E-04                                 F               2         First time derivative of ED Platform horizontal surge translation DOF (internal DOF index = DOF_Sg), m/s
          2    8.238E-04                                 F               2         First time derivative of ED Platform horizontal sway translation DOF (internal DOF index = DOF_Sw), m/s
          3    2.787E-05                                 F               2         First time derivative of ED Platform vertical heave translation DOF (internal DOF index = DOF_Hv), m/s
          4   -2.924E-04                                 F               2         First time derivative of ED Platform roll tilt rotation DOF (internal DOF index = DOF_R), rad/s
          5    1.368E-05                                 F               2         First time derivative of ED Platform pitch tilt rotation DOF (internal DOF index = DOF_P), rad/s
          6   -2.583E-05                                 F               2         First time derivative of ED Platform yaw rotation DOF (internal DOF index = DOF_Y), rad/s
          7   -1.955E-03                                 F               2         First time derivative of ED 1st tower fore-aft bending mode DOF (internal DOF index = DOF_TFA1), m/s
          8   -1.787E-04                                 F               2         First time derivative of ED 1st tower side-to-side bending mode DOF (internal DOF index = DOF_TSS1), m/s
          9   -2.060E-06                                 F               2         First time derivative of ED 2nd tower fore-aft bending mode DOF (internal DOF index = DOF_TFA2), m/s
         10   -2.038E-06                                 F               2         First time derivative of ED 2nd tower side-to-side bending mode DOF (internal DOF index = DOF_TSS2), m/s
         11    8.852E-01                                 F               2         First time derivative of ED Variable speed generator DOF (internal DOF index = DOF_GeAz), rad/s
         12    1.248E-04                                 F               2         First time derivative of ED First time derivative of Platform horizontal surge translation DOF (internal DOF index = DOF_Sg), m/s/s
         13   -2.116E-04                                 F               2         First time derivative of ED First time derivative of Platform horizontal sway translation DOF (internal DOF index = DOF_Sw), m/s/s
         14   -5.002E-04                                 F               2         First time derivative of ED First time derivative of Platform vertical heave translation DOF (internal DOF index = DOF_Hv), m/s/s
         15    1.121E-04                                 F               2         First time derivative of ED First time derivative of Platform roll tilt rotation DOF (internal DOF index = DOF_R), rad/s/s
         16    9.575E-06                                 F               2         First time derivative of ED First time derivative of Platform pitch tilt rotation DOF (internal DOF index = DOF_P), rad/s/s
         17   -5.632E-05                                 F               2         First time derivative of ED First time derivative of Platform yaw rotation DOF (internal DOF index = DOF_Y), rad/s/s
         18   -6.513E-04                                 F               2         First time derivative of ED First time derivative of 1st tower fore-aft bending mode DOF (internal DOF index = DOF_TFA1), m/s/s
         19   -3.485E-03                                 F               2         First time derivative of ED First time derivative of 1st tower side-to-side bending mode DOF (internal DOF index = DOF_TSS1), m/s/s
         20   -1.062E-06                                 F               2         First time derivative of ED First time derivative of 2nd tower fore-aft bending mode DOF (internal DOF index = DOF_TFA2), m/s/s
         21    1.603E-06                                 F               2         First time derivative of ED First time derivative of 2nd tower side-to-side bending mode DOF (internal DOF index = DOF_TSS2), m/s/s
         22   -1.006E-04                                 F               2         First time derivative of ED First time derivative of Variable speed generator DOF (internal DOF index = DOF_GeAz), rad/s/s

Order of inputs:
     Column   Operating Point                     Rotating Frame? Derivative Order Description
   ---------- ---------------                     --------------- ---------------- -----------
          1   -1.080E+01                                 F               0         IfW X-component position of node 1 (hub), m
          2    0.000E+00                                 F               0         IfW Y-component position of node 1 (hub), m
          3    1.497E+02                                 F               0         IfW Z-component position of node 1 (hub), m
          4    1.472E+01                                 F               0         IfW X-component position of node 2 (blade 1, node 1), m
          5   -4.003E+00                                 F               0         IfW Y-component position of node 2 (blade 1, node 1), m
          6    1.532E+02                                 F               0         IfW Z-component position of node 2 (blade 1, node 1), m
          7    1.487E+01                                 F               0         IfW X-component position of node 3 (blade 1, node 2), m
          8   -5.080E+00                                 F               0         IfW Y-component position of node 3 (blade 1, node 2), m
          9    1.540E+02                                 F               0         IfW Z-component position of node 3 (blade 1, node 2), m
         10    1.691E+01                                 F               0         IfW X-component position of node 4 (blade 1, node 3), m
         11   -1.972E+01                                 F               0         IfW Y-component position of node 4 (blade 1, node 3), m
         12    1.645E+02                                 F               0         IfW Z-component position of node 4 (blade 1, node 3), m
         13    1.735E+01                                 F               0         IfW X-component position of node 5 (blade 1, node 4), m
         14   -2.284E+01                                 F               0         IfW Y-component position of node 5 (blade 1, node 4), m
         15    1.668E+02                                 F               0         IfW Z-component position of node 5 (blade 1, node 4), m
         16    1.778E+01                                 F               0         IfW X-component position of node 6 (blade 1, node 5), m
         17   -2.596E+01                                 F               0         IfW Y-component position of node 6 (blade 1, node 5), m
         18    1.690E+02                                 F               0         IfW Z-component position of node 6 (blade 1, node 5), m
         19    1.822E+01                                 F               0         IfW X-component position of node 7 (blade 1, node 6), m
         20   -2.908E+01                                 F               0         IfW Y-component position of node 7 (blade 1, node 6), m
         21    1.713E+02                                 F               0         IfW Z-component position of node 7 (blade 1, node 6), m
         22    1.865E+01                                 F               0         IfW X-component position of node 8 (blade 1, node 7), m
         23   -3.220E+01                                 F               0         IfW Y-component position of node 8 (blade 1, node 7), m
         24    1.735E+02                                 F               0         IfW Z-component position of node 8 (blade 1, node 7), m
         25    1.909E+01                                 F               0         IfW X-component position of node 9 (blade 1, node 8), m
         26   -3.532E+01                                 F               0         IfW Y-component position of node 9 (blade 1, node 8), m
         27    1.758E+02                                 F               0         IfW Z-component position of node 9 (blade 1, node 8), m
         28    1.952E+01                                 F               0         IfW X-component position of node 10 (blade 1, node 9), m
         29   -3.843E+01                                 F               0         IfW Y-component position of node 10 (blade 1, node 9), m
         30    1.780E+02                                 F               0         IfW Z-component position of node 10 (blade 1, node 9), m
         31    1.996E+01                                 F               0         IfW X-component position of node 11 (blade 1, node 10), m
         32   -4.155E+01                                 F               0         IfW Y-component position of node 11 (blade 1, node 10), m
         33    1.803E+02                                 F               0         IfW Z-component position of node 11 (blade 1, node 10), m
         34    2.039E+01                                 F               0         IfW X-component position of node 12 (blade 1, node 11), m
         35   -4.467E+01                                 F               0         IfW Y-component position of node 12 (blade 1, node 11), m
         36    1.825E+02                                 F               0         IfW Z-component position of node 12 (blade 1, node 11), m
         37    2.083E+01                                 F               0         IfW X-component position of node 13 (blade 1, node 12), m
         38   -4.779E+01                                 F               0         IfW Y-component position of node 13 (blade 1, node 12), m
         39    1.848E+02                                 F               0         IfW Z-component position of node 13 (blade 1, node 12), m
         40    2.126E+01                                 F               0         IfW X-component position of node 14 (blade 1, node 13), m
         41   -5.091E+01                                 F               0         IfW Y-component position of node 14 (blade 1, node 13), m
         42    1.870E+02                                 F               0         IfW Z-component position of node 14 (blade 1, node 13), m
         43    2.170E+01                                 F               0         IfW X-component position of node 15 (blade 1, node 14), m
         44   -5.403E+01                                 F               0         IfW Y-component position of node 15 (blade 1, node 14), m
         45    1.892E+02                                 F               0         IfW Z-component position of node 15 (blade 1, node 14), m
         46    2.213E+01                                 F               0         IfW X-component position of node 16 (blade 1, node 15), m
         47   -5.715E+01                                 F               0         IfW Y-component position of node 16 (blade 1, node 15), m
         48    1.915E+02                                 F               0         IfW Z-component position of node 16 (blade 1, node 15), m
         49    2.257E+01                                 F               0         IfW X-component position of node 17 (blade 1, node 16), m
         50   -6.027E+01                                 F               0         IfW Y-component position of node 17 (blade 1, node 16), m
         51    1.937E+02                                 F               0         IfW Z-component position of node 17 (blade 1, node 16), m
         52    2.300E+01                                 F               0         IfW X-component position of node 18 (blade 1, node 17), m
         53   -6.339E+01                                 F               0         IfW Y-component position of node 18 (blade 1, node 17), m
         54    1.960E+02                                 F               0         IfW Z-component position of node 18 (blade 1, node 17), m
         55    2.344E+01                                 F               0         IfW X-component position of node 19 (blade 1, node 18), m
         56   -6.651E+01                                 F               0         IfW Y-component position of node 19 (blade 1, node 18), m
         57    1.982E+02                                 F               0         IfW Z-component position of node 19 (blade 1, node 18), m
         58    2.387E+01                                 F               0         IfW X-component position of node 20 (blade 1, node 19), m
         59   -6.963E+01                                 F               0         IfW Y-component position of node 20 (blade 1, node 19), m
         60    2.005E+02                                 F               0         IfW Z-component position of node 20 (blade 1, node 19), m
         61    2.431E+01                                 F               0         IfW X-component position of node 21 (blade 1, node 20), m
         62   -7.275E+01                                 F               0         IfW Y-component position of node 21 (blade 1, node 20), m
         63    2.027E+02                                 F               0         IfW Z-component position of node 21 (blade 1, node 20), m
         64    2.474E+01                                 F               0         IfW X-component position of node 22 (blade 1, node 21), m
         65   -7.587E+01                                 F               0         IfW Y-component position of node 22 (blade 1, node 21), m
         66    2.050E+02                                 F               0         IfW Z-component position of node 22 (blade 1, node 21), m
         67    2.518E+01                                 F               0         IfW X-component position of node 23 (blade 1, node 22), m
         68   -7.899E+01                                 F               0         IfW Y-component position of node 23 (blade 1, node 22), m
         69    2.072E+02                                 F               0         IfW Z-component position of node 23 (blade 1, node 22), m
         70    2.561E+01                                 F               0         IfW X-component position of node 24 (blade 1, node 23), m
         71   -8.210E+01                                 F               0         IfW Y-component position of node 24 (blade 1, node 23), m
         72    2.094E+02                                 F               0         IfW Z-component position of node 24 (blade 1, node 23), m
         73    2.605E+01                                 F               0         IfW X-component position of node 25 (blade 1, node 24), m
         74   -8.522E+01                                 F               0         IfW Y-component position of node 25 (blade 1, node 24), m
         75    2.117E+02                                 F               0         IfW Z-component position of node 25 (blade 1, node 24), m
         76    2.648E+01                                 F               0         IfW X-component position of node 26 (blade 1, node 25), m
         77   -8.834E+01                                 F               0         IfW Y-component position of node 26 (blade 1, node 25), m
         78    2.139E+02                                 F               0         IfW Z-component position of node 26 (blade 1, node 25), m
         79    2.692E+01                                 F               0         IfW X-component position of node 27 (blade 1, node 26), m
         80   -9.146E+01                                 F               0         IfW Y-component position of node 27 (blade 1, node 26), m
         81    2.162E+02                                 F               0         IfW Z-component position of node 27 (blade 1, node 26), m
         82    2.735E+01                                 F               0         IfW X-component position of node 28 (blade 1, node 27), m
         83   -9.458E+01                                 F               0         IfW Y-component position of node 28 (blade 1, node 27), m
         84    2.184E+02                                 F               0         IfW Z-component position of node 28 (blade 1, node 27), m
         85    2.772E+01                                 F               0         IfW X-component position of node 29 (blade 1, node 28), m
         86   -9.723E+01                                 F               0         IfW Y-component position of node 29 (blade 1, node 28), m
         87    2.203E+02                                 F               0         IfW Z-component position of node 29 (blade 1, node 28), m
         88    1.305E+01                                 F               0         IfW X-component position of node 30 (blade 2, node 1), m
         89   -1.377E-01                                 F               0         IfW Y-component position of node 30 (blade 2, node 1), m
         90    1.446E+02                                 F               0         IfW Z-component position of node 30 (blade 2, node 1), m
         91    1.280E+01                                 F               0         IfW X-component position of node 31 (blade 2, node 2), m
         92   -2.829E-01                                 F               0         IfW Y-component position of node 31 (blade 2, node 2), m
         93    1.433E+02                                 F               0         IfW Z-component position of node 31 (blade 2, node 2), m
         94    9.395E+00                                 F               0         IfW X-component position of node 32 (blade 2, node 3), m
         95   -2.258E+00                                 F               0         IfW Y-component position of node 32 (blade 2, node 3), m
         96    1.256E+02                                 F               0         IfW Z-component position of node 32 (blade 2, node 3), m
         97    8.668E+00                                 F               0         IfW X-component position of node 33 (blade 2, node 4), m
         98   -2.678E+00                                 F               0         IfW Y-component position of node 33 (blade 2, node 4), m
         99    1.218E+02                                 F               0         IfW Z-component position of node 33 (blade 2, node 4), m
        100    7.942E+00                                 F               0         IfW X-component position of node 34 (blade 2, node 5), m
        101   -3.099E+00                                 F               0         IfW Y-component position of node 34 (blade 2, node 5), m
        102    1.180E+02                                 F               0         IfW Z-component position of node 34 (blade 2, node 5), m
        103    7.216E+00                                 F               0         IfW X-component position of node 35 (blade 2, node 6), m
        104   -3.520E+00                                 F               0         IfW Y-component position of node 35 (blade 2, node 6), m
        105    1.143E+02                                 F               0         IfW Z-component position of node 35 (blade 2, node 6), m
        106    6.489E+00                                 F               0         IfW X-component position of node 36 (blade 2, node 7), m
        107   -3.941E+00                                 F               0         IfW Y-component position of node 36 (blade 2, node 7), m
        108    1.105E+02                                 F               0         IfW Z-component position of node 36 (blade 2, node 7), m
        109    5.763E+00                                 F               0         IfW X-component position of node 37 (blade 2, node 8), m
        110   -4.362E+00                                 F               0         IfW Y-component position of node 37 (blade 2, node 8), m
        111    1.067E+02                                 F               0         IfW Z-component position of node 37 (blade 2, node 8), m
        112    5.037E+00                                 F               0         IfW X-component position of node 38 (blade 2, node 9), m
        113   -4.782E+00                                 F               0         IfW Y-component position of node 38 (blade 2, node 9), m
        114    1.029E+02                                 F               0         IfW Z-component position of node 38 (blade 2, node 9), m
        115    4.311E+00                                 F               0         IfW X-component position of node 39 (blade 2, node 10), m
        116   -5.203E+00                                 F               0         IfW Y-component position of node 39 (blade 2, node 10), m
        117    9.916E+01                                 F               0         IfW Z-component position of node 39 (blade 2, node 10), m
        118    3.584E+00                                 F               0         IfW X-component position of node 40 (blade 2, node 11), m
        119   -5.624E+00                                 F               0         IfW Y-component position of node 40 (blade 2, node 11), m
        120    9.539E+01                                 F               0         IfW Z-component position of node 40 (blade 2, node 11), m
        121    2.858E+00                                 F               0         IfW X-component position of node 41 (blade 2, node 12), m
        122   -6.045E+00                                 F               0         IfW Y-component position of node 41 (blade 2, node 12), m
        123    9.161E+01                                 F               0         IfW Z-component position of node 41 (blade 2, node 12), m
        124    2.132E+00                                 F               0         IfW X-component position of node 42 (blade 2, node 13), m
        125   -6.465E+00                                 F               0         IfW Y-component position of node 42 (blade 2, node 13), m
        126    8.783E+01                                 F               0         IfW Z-component position of node 42 (blade 2, node 13), m
        127    1.406E+00                                 F               0         IfW X-component position of node 43 (blade 2, node 14), m
        128   -6.886E+00                                 F               0         IfW Y-component position of node 43 (blade 2, node 14), m
        129    8.406E+01                                 F               0         IfW Z-component position of node 43 (blade 2, node 14), m
        130    6.792E-01                                 F               0         IfW X-component position of node 44 (blade 2, node 15), m
        131   -7.307E+00                                 F               0         IfW Y-component position of node 44 (blade 2, node 15), m
        132    8.028E+01                                 F               0         IfW Z-component position of node 44 (blade 2, node 15), m
        133   -4.699E-02                                 F               0         IfW X-component position of node 45 (blade 2, node 16), m
        134   -7.728E+00                                 F               0         IfW Y-component position of node 45 (blade 2, node 16), m
        135    7.651E+01                                 F               0         IfW Z-component position of node 45 (blade 2, node 16), m
        136   -7.732E-01                                 F               0         IfW X-component position of node 46 (blade 2, node 17), m
        137   -8.148E+00                                 F               0         IfW Y-component position of node 46 (blade 2, node 17), m
        138    7.273E+01                                 F               0         IfW Z-component position of node 46 (blade 2, node 17), m
        139   -1.499E+00                                 F               0         IfW X-component position of node 47 (blade 2, node 18), m
        140   -8.569E+00                                 F               0         IfW Y-component position of node 47 (blade 2, node 18), m
        141    6.896E+01                                 F               0         IfW Z-component position of node 47 (blade 2, node 18), m
        142   -2.226E+00                                 F               0         IfW X-component position of node 48 (blade 2, node 19), m
        143   -8.990E+00                                 F               0         IfW Y-component position of node 48 (blade 2, node 19), m
        144    6.518E+01                                 F               0         IfW Z-component position of node 48 (blade 2, node 19), m