
Linearized model: Predictions were generated on 06-Feb-2024 at 08:44:08 using OpenFAST, compiled as a 64-bit application using single precision at commit v3.5.1
 linked with  NWTC Subroutine Library; ElastoDyn; InflowWind; AeroDyn; ServoDyn; HydroDyn; MAP++ (<1.20.10>, <Oct-20-2023>)

Description from the FAST input file: CCT-9 Campign 4 model. Input files to be run with OpenFAST 3.5.0. GitHub branch from Lu Wang (https://github.com/luwang00/openfast/tree/dev) compiled on March 7, 2023.

Simulation information:
   Simulation time:                  2504.4000 s
   Rotor Speed:                         0.8852 rad/s
   Azimuth:                             0.7644 rad
   Wind Speed:                         10.0000 m/s
   Number of continuous states:         0
   Number of discrete states:           0
   Number of constraint states:         0
   Number of inputs:                 1746
   Number of outputs:                   4
   Jacobians included in this file?    No

Order of inputs:
     Column   Operating Point                     Rotating Frame? Derivative Order Description
   ---------- ---------------                     --------------- ---------------- -----------
          1    1.391E+01                                 F               0         Tower X translation displacement, node 1, m
          2    7.710E-02                                 F               0         Tower Y translation displacement, node 1, m
          3   -1.831E-01                                 F               0         Tower Z translation displacement, node 1, m
          4    1.488E+01                                 F               0         Tower X translation displacement, node 2, m
          5    1.122E-01                                 F               0         Tower Y translation displacement, node 2, m
          6   -2.217E-01                                 F               0         Tower Z translation displacement, node 2, m
          7    1.588E+01                                 F               0         Tower X translation displacement, node 3, m
          8    1.480E-01                                 F               0         Tower Y translation displacement, node 3, m
          9   -2.619E-01                                 F               0         Tower Z translation displacement, node 3, m
         10    1.689E+01                                 F               0         Tower X translation displacement, node 4, m
         11    1.842E-01                                 F               0         Tower Y translation displacement, node 4, m
         12   -3.034E-01                                 F               0         Tower Z translation displacement, node 4, m
         13    1.791E+01                                 F               0         Tower X translation displacement, node 5, m
         14    2.208E-01                                 F               0         Tower Y translation displacement, node 5, m
         15   -3.459E-01                                 F               0         Tower Z translation displacement, node 5, m
         16    1.894E+01                                 F               0         Tower X translation displacement, node 6, m
         17    2.578E-01                                 F               0         Tower Y translation displacement, node 6, m
         18   -3.892E-01                                 F               0         Tower Z translation displacement, node 6, m
         19    1.998E+01                                 F               0         Tower X translation displacement, node 7, m
         20    2.950E-01                                 F               0         Tower Y translation displacement, node 7, m
         21   -4.331E-01                                 F               0         Tower Z translation displacement, node 7, m
         22    2.103E+01                                 F               0         Tower X translation displacement, node 8, m
         23    3.325E-01                                 F               0         Tower Y translation displacement, node 8, m
         24   -4.775E-01                                 F               0         Tower Z translation displacement, node 8, m
         25    2.208E+01                                 F               0         Tower X translation displacement, node 9, m
         26    3.701E-01                                 F               0         Tower Y translation displacement, node 9, m
         27   -5.222E-01                                 F               0         Tower Z translation displacement, node 9, m
         28    2.313E+01                                 F               0         Tower X translation displacement, node 10, m
         29    4.079E-01                                 F               0         Tower Y translation displacement, node 10, m
         30   -5.672E-01                                 F               0         Tower Z translation displacement, node 10, m
         31    2.419E+01                                 F               0         Tower X translation displacement, node 11, m
         32    4.458E-01                                 F               0         Tower Y translation displacement, node 11, m
         33   -6.123E-01                                 F               0         Tower Z translation displacement, node 11, m
         34    9.969E-01,  1.323E-03, -7.828E-02         F               0         Tower X orientation angle, node 1, rad
         35   -1.540E-03,  1.000E+00, -2.713E-03         F               0         Tower Y orientation angle, node 1, rad
         36    7.828E-02,  2.825E-03,  9.969E-01         F               0         Tower Z orientation angle, node 1, rad
         37    9.968E-01,  1.319E-03, -7.982E-02         F               0         Tower X orientation angle, node 2, rad
         38   -1.544E-03,  1.000E+00, -2.756E-03         F               0         Tower Y orientation angle, node 2, rad
         39    7.981E-02,  2.870E-03,  9.968E-01         F               0         Tower Z orientation angle, node 2, rad
         40    9.967E-01,  1.315E-03, -8.116E-02         F               0         Tower X orientation angle, node 3, rad
         41   -1.547E-03,  1.000E+00, -2.795E-03         F               0         Tower Y orientation angle, node 3, rad
         42    8.115E-02,  2.911E-03,  9.967E-01         F               0         Tower Z orientation angle, node 3, rad
         43    9.966E-01,  1.312E-03, -8.228E-02         F               0         Tower X orientation angle, node 4, rad
         44   -1.550E-03,  1.000E+00, -2.829E-03         F               0         Tower Y orientation angle, node 4, rad
         45    8.228E-02,  2.947E-03,  9.966E-01         F               0         Tower Z orientation angle, node 4, rad
         46    9.965E-01,  1.309E-03, -8.319E-02         F               0         Tower X orientation angle, node 5, rad
         47   -1.552E-03,  1.000E+00, -2.859E-03         F               0         Tower Y orientation angle, node 5, rad
         48    8.319E-02,  2.978E-03,  9.965E-01         F               0         Tower Z orientation angle, node 5, rad
         49    9.965E-01,  1.307E-03, -8.392E-02         F               0         Tower X orientation angle, node 6, rad
         50   -1.554E-03,  1.000E+00, -2.884E-03         F               0         Tower Y orientation angle, node 6, rad
         51    8.391E-02,  3.004E-03,  9.965E-01         F               0         Tower Z orientation angle, node 6, rad
         52    9.964E-01,  1.305E-03, -8.445E-02         F               0         Tower X orientation angle, node 7, rad
         53   -1.556E-03,  1.000E+00, -2.904E-03         F               0         Tower Y orientation angle, node 7, rad
         54    8.445E-02,  3.025E-03,  9.964E-01         F               0         Tower Z orientation angle, node 7, rad
         55    9.964E-01,  1.304E-03, -8.484E-02         F               0         Tower X orientation angle, node 8, rad
         56   -1.557E-03,  1.000E+00, -2.919E-03         F               0         Tower Y orientation angle, node 8, rad
         57    8.483E-02,  3.041E-03,  9.964E-01         F               0         Tower Z orientation angle, node 8, rad
         58    9.964E-01,  1.303E-03, -8.510E-02         F               0         Tower X orientation angle, node 9, rad
         59   -1.558E-03,  1.000E+00, -2.931E-03         F               0         Tower Y orientation angle, node 9, rad
         60    8.509E-02,  3.053E-03,  9.964E-01         F               0         Tower Z orientation angle, node 9, rad
         61    9.964E-01,  1.303E-03, -8.525E-02         F               0         Tower X orientation angle, node 10, rad
         62   -1.559E-03,  1.000E+00, -2.938E-03         F               0         Tower Y orientation angle, node 10, rad
         63    8.524E-02,  3.060E-03,  9.964E-01         F               0         Tower Z orientation angle, node 10, rad
         64    9.964E-01,  1.302E-03, -8.533E-02         F               0         Tower X orientation angle, node 11, rad
         65   -1.559E-03,  1.000E+00, -2.943E-03         F               0         Tower Y orientation angle, node 11, rad
         66    8.532E-02,  3.065E-03,  9.963E-01         F               0         Tower Z orientation angle, node 11, rad
         67    4.147E-04                                 F               0         Tower X translation velocity, node 1, m/s
         68    6.560E-03                                 F               0         Tower Y translation velocity, node 1, m/s
         69    9.777E-05                                 F               0         Tower Z translation velocity, node 1, m/s
         70    5.276E-04                                 F               0         Tower X translation velocity, node 2, m/s
         71    1.040E-02                                 F               0         Tower Y translation velocity, node 2, m/s
         72    7.788E-05                                 F               0         Tower Z translation velocity, node 2, m/s
         73    5.916E-04                                 F               0         Tower X translation velocity, node 3, m/s
         74    1.424E-02                                 F               0         Tower Y translation velocity, node 3, m/s
         75    6.158E-05                                 F               0         Tower Z translation velocity, node 3, m/s
         76    6.177E-04                                 F               0         Tower X translation velocity, node 4, m/s
         77    1.807E-02                                 F               0         Tower Y translation velocity, node 4, m/s
         78    4.818E-05                                 F               0         Tower Z translation velocity, node 4, m/s
         79    6.119E-04                                 F               0         Tower X translation velocity, node 5, m/s
         80    2.188E-02                                 F               0         Tower Y translation velocity, node 5, m/s
         81    3.731E-05                                 F               0         Tower Z translation velocity, node 5, m/s
         82    5.798E-04                                 F               0         Tower X translation velocity, node 6, m/s
         83    2.569E-02                                 F               0         Tower Y translation velocity, node 6, m/s
         84    2.856E-05                                 F               0         Tower Z translation velocity, node 6, m/s
         85    5.280E-04                                 F               0         Tower X translation velocity, node 7, m/s
         86    2.949E-02                                 F               0         Tower Y translation velocity, node 7, m/s
         87    2.143E-05                                 F               0         Tower Z translation velocity, node 7, m/s
         88    4.595E-04                                 F               0         Tower X translation velocity, node 8, m/s
         89    3.329E-02                                 F               0         Tower Y translation velocity, node 8, m/s
         90    1.570E-05                                 F               0         Tower Z translation velocity, node 8, m/s
         91    3.788E-04                                 F               0         Tower X translation velocity, node 9, m/s
         92    3.707E-02                                 F               0         Tower Y translation velocity, node 9, m/s
         93    1.100E-05                                 F               0         Tower Z translation velocity, node 9, m/s
         94    2.898E-04                                 F               0         Tower X translation velocity, node 10, m/s
         95    4.086E-02                                 F               0         Tower Y translation velocity, node 10, m/s
         96    7.001E-06                                 F               0         Tower Z translation velocity, node 10, m/s
         97    1.961E-04                                 F               0         Tower X translation velocity, node 11, m/s
         98    4.464E-02                                 F               0         Tower Y translation velocity, node 11, m/s
         99    3.399E-06                                 F               0         Tower Z translation velocity, node 11, m/s
        100    2.489E+01                                 F               0         Hub X translation displacement, node 1, m
        101    4.558E-01                                 F               0         Hub Y translation displacement, node 1, m
        102    2.806E-01                                 F               0         Hub Z translation displacement, node 1, m
        103    9.820E-01,  9.749E-04, -1.890E-01         F               0         Hub X orientation angle, node 1, rad
        104    1.297E-01,  7.240E-01,  6.775E-01         F               0         Hub Y orientation angle, node 1, rad
        105    1.375E-01, -6.898E-01,  7.108E-01         F               0         Hub Z orientation angle, node 1, rad
        106    8.690E-01                                 F               0         Hub X rotation velocity, node 1, rad/s
        107    8.553E-04                                 F               0         Hub Y rotation velocity, node 1, rad/s
        108   -1.673E-01                                 F               0         Hub Z rotation velocity, node 1, rad/s
        109    9.777E-01, -2.050E-02, -2.090E-01         F               0         Blade root 1 X orientation angle, node 1, rad
        110    1.588E-01,  7.237E-01,  6.716E-01         F               0         Blade root 1 Y orientation angle, node 1, rad
        111    1.375E-01, -6.898E-01,  7.108E-01         F               0         Blade root 1 Z orientation angle, node 1, rad
        112    9.799E-01,  2.944E-02, -1.971E-01         F               0         Blade root 2 X orientation angle, node 1, rad
        113    8.335E-02, -9.589E-01,  2.711E-01         F               0         Blade root 2 Y orientation angle, node 1, rad
        114   -1.811E-01, -2.821E-01, -9.421E-01         F               0         Blade root 2 Z orientation angle, node 1, rad
        115    9.870E-01, -6.008E-03, -1.606E-01         F               0         Blade root 3 X orientation angle, node 1, rad
        116   -1.547E-01,  2.353E-01, -9.595E-01         F               0         Blade root 3 Y orientation angle, node 1, rad
        117    4.356E-02,  9.719E-01,  2.313E-01         F               0         Blade root 3 Z orientation angle, node 1, rad
        118    2.508E+01                                 F               0         Blade 1 X translation displacement, node 1, m
        119   -3.366E+00                                 F               0         Blade 1 Y translation displacement, node 1, m
        120   -1.291E+00                                 F               0         Blade 1 Z translation displacement, node 1, m
        121    2.512E+01                                 F               0         Blade 1 X translation displacement, node 2, m
        122   -4.287E+00                                 F               0         Blade 1 Y translation displacement, node 2, m
        123   -1.670E+00                                 F               0         Blade 1 Z translation displacement, node 2, m
        124    2.572E+01                                 F               0         Blade 1 X translation displacement, node 3, m
        125   -1.681E+01                                 F               0         Blade 1 Y translation displacement, node 3, m
        126   -6.819E+00                                 F               0         Blade 1 Z translation displacement, node 3, m
        127    2.585E+01                                 F               0         Blade 1 X translation displacement, node 4, m
        128   -1.948E+01                                 F               0         Blade 1 Y translation displacement, node 4, m
        129   -7.917E+00                                 F               0         Blade 1 Z translation displacement, node 4, m
        130    2.597E+01                                 F               0         Blade 1 X translation displacement, node 5, m
        131   -2.214E+01                                 F               0         Blade 1 Y translation displacement, node 5, m
        132   -9.014E+00                                 F               0         Blade 1 Z translation displacement, node 5, m
        133    2.610E+01                                 F               0         Blade 1 X translation displacement, node 6, m
        134   -2.481E+01                                 F               0         Blade 1 Y translation displacement, node 6, m
        135   -1.011E+01                                 F               0         Blade 1 Z translation displacement, node 6, m
        136    2.623E+01                                 F               0         Blade 1 X translation displacement, node 7, m
        137   -2.748E+01                                 F               0         Blade 1 Y translation displacement, node 7, m
        138   -1.121E+01                                 F               0         Blade 1 Z translation displacement, node 7, m
        139    2.636E+01                                 F               0         Blade 1 X translation displacement, node 8, m
        140   -3.015E+01                                 F               0         Blade 1 Y translation displacement, node 8, m
        141   -1.231E+01                                 F               0         Blade 1 Z translation displacement, node 8, m
        142    2.649E+01                                 F               0         Blade 1 X translation displacement, node 9, m
        143   -3.282E+01                                 F               0         Blade 1 Y translation displacement, node 9, m
        144   -1.340E+01                                 F               0         Blade 1 Z translation displacement, node 9, m
        145    2.661E+01                                 F               0         Blade 1 X translation displacement, node 10, m
        146   -3.548E+01                                 F               0         Blade 1 Y translation displacement, node 10, m
        147   -1.450E+01                                 F               0         Blade 1 Z translation displacement, node 10, m
        148    2.674E+01                                 F               0         Blade 1 X translation displacement, node 11, m
        149   -3.815E+01                                 F               0         Blade 1 Y translation displacement, node 11, m
        150   -1.560E+01                                 F               0         Blade 1 Z translation displacement, node 11, m
        151    2.687E+01                                 F               0         Blade 1 X translation displacement, node 12, m
        152   -4.082E+01                                 F               0         Blade 1 Y translation displacement, node 12, m
        153   -1.669E+01                                 F               0         Blade 1 Z translation displacement, node 12, m
        154    2.700E+01                                 F               0         Blade 1 X translation displacement, node 13, m
        155   -4.349E+01                                 F               0         Blade 1 Y translation displacement, node 13, m
        156   -1.779E+01                                 F               0         Blade 1 Z translation displacement, node 13, m
        157    2.712E+01                                 F               0         Blade 1 X translation displacement, node 14, m
        158   -4.615E+01                                 F               0         Blade 1 Y translation displacement, node 14, m
        159   -1.889E+01                                 F               0         Blade 1 Z translation displacement, node 14, m
        160    2.725E+01                                 F               0         Blade 1 X translation displacement, node 15, m
        161   -4.882E+01                                 F               0         Blade 1 Y translation displacement, node 15, m
        162   -1.999E+01                                 F               0         Blade 1 Z translation displacement, node 15, m
        163    2.738E+01                                 F               0         Blade 1 X translation displacement, node 16, m
        164   -5.149E+01                                 F               0         Blade 1 Y translation displacement, node 16, m
        165   -2.108E+01                                 F               0         Blade 1 Z translation displacement, node 16, m
        166    2.751E+01                                 F               0         Blade 1 X translation displacement, node 17, m
        167   -5.416E+01                                 F               0         Blade 1 Y translation displacement, node 17, m
        168   -2.218E+01                                 F               0         Blade 1 Z translation displacement, node 17, m
        169    2.763E+01                                 F               0         Blade 1 X translation displacement, node 18, m
        170   -5.683E+01                                 F               0         Blade 1 Y translation displacement, node 18, m
        171   -2.328E+01                                 F               0         Blade 1 Z translation displacement, node 18, m
        172    2.776E+01                                 F               0         Blade 1 X translation displacement, node 19, m
        173   -5.949E+01                                 F               0         Blade 1 Y translation displacement, node 19, m
        174   -2.438E+01                                 F               0         Blade 1 Z translation displacement, node 19, m
        175    2.789E+01                                 F               0         Blade 1 X translation displacement, node 20, m
        176   -6.216E+01                                 F               0         Blade 1 Y translation displacement, node 20, m
        177   -2.547E+01                                 F               0         Blade 1 Z translation displacement, node 20, m
        178    2.802E+01                                 F               0         Blade 1 X translation displacement, node 21, m
        179   -6.483E+01                                 F               0         Blade 1 Y translation displacement, node 21, m
        180   -2.657E+01                                 F               0         Blade 1 Z translation displacement, node 21, m
        181    2.814E+01                                 F               0         Blade 1 X translation displacement, node 22, m
        182   -6.750E+01                                 F               0         Blade 1 Y translation displacement, node 22, m
        183   -2.767E+01                                 F               0         Blade 1 Z translation displacement, node 22, m
        184    2.827E+01                                 F               0         Blade 1 X translation displacement, node 23, m
        185   -7.017E+01                                 F               0         Blade 1 Y translation displacement, node 23, m
        186   -2.876E+01                                 F               0         Blade 1 Z translation displacement, node 23, m
        187    2.840E+01                                 F               0         Blade 1 X translation displacement, node 24, m
        188   -7.283E+01                                 F               0         Blade 1 Y translation displacement, node 24, m
        189   -2.986E+01                                 F               0         Blade 1 Z translation displacement, node 24, m
        190    2.853E+01                                 F               0         Blade 1 X translation displacement, node 25, m
        191   -7.550E+01                                 F               0         Blade 1 Y translation displacement, node 25, m
        192   -3.096E+01                                 F               0         Blade 1 Z translation displacement, node 25, m
        193    2.865E+01                                 F               0         Blade 1 X translation displacement, node 26, m
        194   -7.817E+01                                 F               0         Blade 1 Y translation displacement, node 26, m
        195   -3.206E+01                                 F               0         Blade 1 Z translation displacement, node 26, m
        196    2.878E+01                                 F               0         Blade 1 X translation displacement, node 27, m
        197   -8.084E+01                                 F               0         Blade 1 Y translation displacement, node 27, m
        198   -3.315E+01                                 F               0         Blade 1 Z translation displacement, node 27, m
        199    2.889E+01                                 F               0         Blade 1 X translation displacement, node 28, m
        200   -8.310E+01                                 F               0         Blade 1 Y translation displacement, node 28, m
        201   -3.408E+01                                 F               0         Blade 1 Z translation displacement, node 28, m
        202    7.977E-01, -3.483E-01, -4.923E-01         F               0         Blade 1 X orientation angle, node 1, rad
        203    5.871E-01,  6.347E-01,  5.024E-01         F               0         Blade 1 Y orientation angle, node 1, rad
        204    1.375E-01, -6.898E-01,  7.108E-01         F               0         Blade 1 Z orientation angle, node 1, rad
        205    7.977E-01, -3.483E-01, -4.923E-01         F               0         Blade 1 X orientation angle, node 2, rad
        206    5.871E-01,  6.347E-01,  5.024E-01         F               0         Blade 1 Y orientation angle, node 2, rad
        207    1.375E-01, -6.898E-01,  7.108E-01         F               0         Blade 1 Z orientation angle, node 2, rad
        208    9.142E-01, -1.879E-01, -3.592E-01         F               0         Blade 1 X orientation angle, node 3, rad
        209    3.813E-01,  6.992E-01,  6.047E-01         F               0         Blade 1 Y orientation angle, node 3, rad
        210    1.375E-01, -6.898E-01,  7.108E-01         F               0         Blade 1 Z orientation angle, node 3, rad
        211    9.294E-01, -1.582E-01, -3.333E-01         F               0         Blade 1 X orientation angle, node 4, rad
        212    3.424E-01,  7.065E-01,  6.194E-01         F               0         Blade 1 Y orientation angle, node 4, rad
        213    1.375E-01, -6.898E-01,  7.108E-01         F               0         Blade 1 Z orientation angle, node 4, rad
        214    9.403E-01, -1.347E-01, -3.126E-01         F               0         Blade 1 X orientation angle, node 5, rad
        215    3.114E-01,  7.114E-01,  6.301E-01         F               0         Blade 1 Y orientation angle, node 5, rad
        216    1.375E-01, -6.898E-01,  7.108E-01         F               0         Blade 1 Z orientation angle, node 5, rad
        217    9.482E-01, -1.158E-01, -2.958E-01         F               0         Blade 1 X orientation angle, node 6, rad
        218    2.863E-01,  7.147E-01,  6.381E-01         F               0         Blade 1 Y orientation angle, node 6, rad
        219    1.375E-01, -6.898E-01,  7.108E-01         F               0         Blade 1 Z orientation angle, node 6, rad
        220    9.542E-01, -1.002E-01, -2.818E-01         F               0         Blade 1 X orientation angle, node 7, rad
        221    2.656E-01,  7.170E-01,  6.444E-01         F               0         Blade 1 Y orientation angle, node 7, rad
        222    1.375E-01, -6.898E-01,  7.108E-01         F               0         Blade 1 Z orientation angle, node 7, rad
        223    9.589E-01, -8.714E-02, -2.700E-01         F               0         Blade 1 X orientation angle, node 8, rad
        224    2.482E-01,  7.187E-01,  6.495E-01         F               0         Blade 1 Y orientation angle, node 8, rad
        225    1.375E-01, -6.898E-01,  7.108E-01         F               0         Blade 1 Z orientation angle, node 8, rad
        226    9.626E-01, -7.609E-02, -2.600E-01         F               0         Blade 1 X orientation angle, node 9, rad
        227    2.335E-01,  7.200E-01,  6.535E-01         F               0         Blade 1 Y orientation angle, node 9, rad