
Linearized model: Predictions were generated on 06-Feb-2024 at 08:44:08 using OpenFAST, compiled as a 64-bit application using single precision at commit v3.5.1
 linked with  NWTC Subroutine Library; ElastoDyn; InflowWind; AeroDyn; ServoDyn; HydroDyn; MAP++ (<1.20.10>, <Oct-20-2023>)

Description from the FAST input file: CCT-9 Campign 4 model. Input files to be run with OpenFAST 3.5.0. GitHub branch from Lu Wang (https://github.com/luwang00/openfast/tree/dev) compiled on March 7, 2023.

Simulation information:
   Simulation time:                  2504.8000 s
   Rotor Speed:                         0.8852 rad/s
   Azimuth:                             1.1185 rad
   Wind Speed:                         10.0000 m/s
   Number of continuous states:         0
   Number of discrete states:           0
   Number of constraint states:         0
   Number of inputs:                 1746
   Number of outputs:                   4
   Jacobians included in this file?    No

Order of inputs:
     Column   Operating Point                     Rotating Frame? Derivative Order Description
   ---------- ---------------                     --------------- ---------------- -----------
          1    1.391E+01                                 F               0         Tower X translation displacement, node 1, m
          2    7.955E-02                                 F               0         Tower Y translation displacement, node 1, m
          3   -1.831E-01                                 F               0         Tower Z translation displacement, node 1, m
          4    1.488E+01                                 F               0         Tower X translation displacement, node 2, m
          5    1.161E-01                                 F               0         Tower Y translation displacement, node 2, m
          6   -2.217E-01                                 F               0         Tower Z translation displacement, node 2, m
          7    1.588E+01                                 F               0         Tower X translation displacement, node 3, m
          8    1.533E-01                                 F               0         Tower Y translation displacement, node 3, m
          9   -2.620E-01                                 F               0         Tower Z translation displacement, node 3, m
         10    1.689E+01                                 F               0         Tower X translation displacement, node 4, m
         11    1.910E-01                                 F               0         Tower Y translation displacement, node 4, m
         12   -3.034E-01                                 F               0         Tower Z translation displacement, node 4, m
         13    1.791E+01                                 F               0         Tower X translation displacement, node 5, m
         14    2.290E-01                                 F               0         Tower Y translation displacement, node 5, m
         15   -3.459E-01                                 F               0         Tower Z translation displacement, node 5, m
         16    1.894E+01                                 F               0         Tower X translation displacement, node 6, m
         17    2.674E-01                                 F               0         Tower Y translation displacement, node 6, m
         18   -3.892E-01                                 F               0         Tower Z translation displacement, node 6, m
         19    1.998E+01                                 F               0         Tower X translation displacement, node 7, m
         20    3.061E-01                                 F               0         Tower Y translation displacement, node 7, m
         21   -4.331E-01                                 F               0         Tower Z translation displacement, node 7, m
         22    2.103E+01                                 F               0         Tower X translation displacement, node 8, m
         23    3.450E-01                                 F               0         Tower Y translation displacement, node 8, m
         24   -4.775E-01                                 F               0         Tower Z translation displacement, node 8, m
         25    2.208E+01                                 F               0         Tower X translation displacement, node 9, m
         26    3.841E-01                                 F               0         Tower Y translation displacement, node 9, m
         27   -5.223E-01                                 F               0         Tower Z translation displacement, node 9, m
         28    2.313E+01                                 F               0         Tower X translation displacement, node 10, m
         29    4.233E-01                                 F               0         Tower Y translation displacement, node 10, m
         30   -5.672E-01                                 F               0         Tower Z translation displacement, node 10, m
         31    2.419E+01                                 F               0         Tower X translation displacement, node 11, m
         32    4.626E-01                                 F               0         Tower Y translation displacement, node 11, m
         33   -6.123E-01                                 F               0         Tower Z translation displacement, node 11, m
         34    9.969E-01,  1.308E-03, -7.829E-02         F               0         Tower X orientation angle, node 1, rad
         35   -1.535E-03,  1.000E+00, -2.830E-03         F               0         Tower Y orientation angle, node 1, rad
         36    7.828E-02,  2.941E-03,  9.969E-01         F               0         Tower Z orientation angle, node 1, rad
         37    9.968E-01,  1.304E-03, -7.982E-02         F               0         Tower X orientation angle, node 2, rad
         38   -1.538E-03,  1.000E+00, -2.873E-03         F               0         Tower Y orientation angle, node 2, rad
         39    7.982E-02,  2.987E-03,  9.968E-01         F               0         Tower Z orientation angle, node 2, rad
         40    9.967E-01,  1.300E-03, -8.116E-02         F               0         Tower X orientation angle, node 3, rad
         41   -1.541E-03,  1.000E+00, -2.912E-03         F               0         Tower Y orientation angle, node 3, rad
         42    8.115E-02,  3.028E-03,  9.967E-01         F               0         Tower Z orientation angle, node 3, rad
         43    9.966E-01,  1.296E-03, -8.228E-02         F               0         Tower X orientation angle, node 4, rad
         44   -1.544E-03,  1.000E+00, -2.947E-03         F               0         Tower Y orientation angle, node 4, rad
         45    8.228E-02,  3.064E-03,  9.966E-01         F               0         Tower Z orientation angle, node 4, rad
         46    9.965E-01,  1.294E-03, -8.319E-02         F               0         Tower X orientation angle, node 5, rad
         47   -1.546E-03,  1.000E+00, -2.976E-03         F               0         Tower Y orientation angle, node 5, rad
         48    8.319E-02,  3.095E-03,  9.965E-01         F               0         Tower Z orientation angle, node 5, rad
         49    9.965E-01,  1.291E-03, -8.391E-02         F               0         Tower X orientation angle, node 6, rad
         50   -1.549E-03,  1.000E+00, -3.001E-03         F               0         Tower Y orientation angle, node 6, rad
         51    8.391E-02,  3.121E-03,  9.965E-01         F               0         Tower Z orientation angle, node 6, rad
         52    9.964E-01,  1.290E-03, -8.445E-02         F               0         Tower X orientation angle, node 7, rad
         53   -1.550E-03,  1.000E+00, -3.021E-03         F               0         Tower Y orientation angle, node 7, rad
         54    8.444E-02,  3.141E-03,  9.964E-01         F               0         Tower Z orientation angle, node 7, rad
         55    9.964E-01,  1.288E-03, -8.483E-02         F               0         Tower X orientation angle, node 8, rad
         56   -1.552E-03,  1.000E+00, -3.037E-03         F               0         Tower Y orientation angle, node 8, rad
         57    8.483E-02,  3.158E-03,  9.964E-01         F               0         Tower Z orientation angle, node 8, rad
         58    9.964E-01,  1.288E-03, -8.509E-02         F               0         Tower X orientation angle, node 9, rad
         59   -1.553E-03,  1.000E+00, -3.048E-03         F               0         Tower Y orientation angle, node 9, rad
         60    8.509E-02,  3.169E-03,  9.964E-01         F               0         Tower Z orientation angle, node 9, rad
         61    9.964E-01,  1.287E-03, -8.525E-02         F               0         Tower X orientation angle, node 10, rad
         62   -1.553E-03,  1.000E+00, -3.056E-03         F               0         Tower Y orientation angle, node 10, rad
         63    8.524E-02,  3.177E-03,  9.964E-01         F               0         Tower Z orientation angle, node 10, rad
         64    9.964E-01,  1.287E-03, -8.532E-02         F               0         Tower X orientation angle, node 11, rad
         65   -1.554E-03,  1.000E+00, -3.060E-03         F               0         Tower Y orientation angle, node 11, rad
         66    8.532E-02,  3.182E-03,  9.963E-01         F               0         Tower Z orientation angle, node 11, rad
         67    5.343E-04                                 F               0         Tower X translation velocity, node 1, m/s
         68    5.634E-03                                 F               0         Tower Y translation velocity, node 1, m/s
         69   -1.064E-04                                 F               0         Tower Z translation velocity, node 1, m/s
         70    6.917E-04                                 F               0         Tower X translation velocity, node 2, m/s
         71    8.924E-03                                 F               0         Tower Y translation velocity, node 2, m/s
         72   -1.286E-04                                 F               0         Tower Z translation velocity, node 2, m/s
         73    7.926E-04                                 F               0         Tower X translation velocity, node 3, m/s
         74    1.224E-02                                 F               0         Tower Y translation velocity, node 3, m/s
         75   -1.468E-04                                 F               0         Tower Z translation velocity, node 3, m/s
         76    8.497E-04                                 F               0         Tower X translation velocity, node 4, m/s
         77    1.558E-02                                 F               0         Tower Y translation velocity, node 4, m/s
         78   -1.617E-04                                 F               0         Tower Z translation velocity, node 4, m/s
         79    8.695E-04                                 F               0         Tower X translation velocity, node 5, m/s
         80    1.895E-02                                 F               0         Tower Y translation velocity, node 5, m/s
         81   -1.737E-04                                 F               0         Tower Z translation velocity, node 5, m/s
         82    8.585E-04                                 F               0         Tower X translation velocity, node 6, m/s
         83    2.232E-02                                 F               0         Tower Y translation velocity, node 6, m/s
         84   -1.833E-04                                 F               0         Tower Z translation velocity, node 6, m/s
         85    8.243E-04                                 F               0         Tower X translation velocity, node 7, m/s
         86    2.571E-02                                 F               0         Tower Y translation velocity, node 7, m/s
         87   -1.911E-04                                 F               0         Tower Z translation velocity, node 7, m/s
         88    7.702E-04                                 F               0         Tower X translation velocity, node 8, m/s
         89    2.910E-02                                 F               0         Tower Y translation velocity, node 8, m/s
         90   -1.972E-04                                 F               0         Tower Z translation velocity, node 8, m/s
         91    7.014E-04                                 F               0         Tower X translation velocity, node 9, m/s
         92    3.250E-02                                 F               0         Tower Y translation velocity, node 9, m/s
         93   -2.022E-04                                 F               0         Tower Z translation velocity, node 9, m/s
         94    6.227E-04                                 F               0         Tower X translation velocity, node 10, m/s
         95    3.591E-02                                 F               0         Tower Y translation velocity, node 10, m/s
         96   -2.063E-04                                 F               0         Tower Z translation velocity, node 10, m/s
         97    5.381E-04                                 F               0         Tower X translation velocity, node 11, m/s
         98    3.931E-02                                 F               0         Tower Y translation velocity, node 11, m/s
         99   -2.099E-04                                 F               0         Tower Z translation velocity, node 11, m/s
        100    2.489E+01                                 F               0         Hub X translation displacement, node 1, m
        101    4.737E-01                                 F               0         Hub Y translation displacement, node 1, m
        102    2.805E-01                                 F               0         Hub Z translation displacement, node 1, m
        103    9.820E-01,  9.472E-04, -1.890E-01         F               0         Hub X orientation angle, node 1, rad
        104    1.693E-01,  4.400E-01,  8.819E-01         F               0         Hub Y orientation angle, node 1, rad
        105    8.400E-02, -8.980E-01,  4.319E-01         F               0         Hub Z orientation angle, node 1, rad
        106    8.690E-01                                 F               0         Hub X rotation velocity, node 1, rad/s
        107    8.313E-04                                 F               0         Hub Y rotation velocity, node 1, rad/s
        108   -1.673E-01                                 F               0         Hub Z rotation velocity, node 1, rad/s
        109    9.765E-01, -1.211E-02, -2.151E-01         F               0         Blade root 1 X orientation angle, node 1, rad
        110    1.984E-01,  4.399E-01,  8.759E-01         F               0         Blade root 1 Y orientation angle, node 1, rad
        111    8.400E-02, -8.980E-01,  4.319E-01         F               0         Blade root 1 Z orientation angle, node 1, rad
        112    9.819E-01,  3.054E-02, -1.869E-01         F               0         Blade root 2 X orientation angle, node 1, rad
        113    1.723E-02, -9.972E-01, -7.246E-02         F               0         Blade root 2 Y orientation angle, node 1, rad
        114   -1.886E-01,  6.793E-02, -9.797E-01         F               0         Blade root 2 Z orientation angle, node 1, rad
        115    9.862E-01, -1.560E-02, -1.647E-01         F               0         Blade root 3 X orientation angle, node 1, rad
        116   -1.282E-01,  5.575E-01, -8.202E-01         F               0         Blade root 3 Y orientation angle, node 1, rad
        117    1.046E-01,  8.301E-01,  5.478E-01         F               0         Blade root 3 Z orientation angle, node 1, rad
        118    2.478E+01                                 F               0         Blade 1 X translation displacement, node 1, m
        119   -4.501E+00                                 F               0         Blade 1 Y translation displacement, node 1, m
        120   -2.836E+00                                 F               0         Blade 1 Z translation displacement, node 1, m
        121    2.475E+01                                 F               0         Blade 1 X translation displacement, node 2, m
        122   -5.700E+00                                 F               0         Blade 1 Y translation displacement, node 2, m
        123   -3.587E+00                                 F               0         Blade 1 Z translation displacement, node 2, m
        124    2.438E+01                                 F               0         Blade 1 X translation displacement, node 3, m
        125   -2.200E+01                                 F               0         Blade 1 Y translation displacement, node 3, m
        126   -1.380E+01                                 F               0         Blade 1 Z translation displacement, node 3, m
        127    2.430E+01                                 F               0         Blade 1 X translation displacement, node 4, m
        128   -2.547E+01                                 F               0         Blade 1 Y translation displacement, node 4, m
        129   -1.598E+01                                 F               0         Blade 1 Z translation displacement, node 4, m
        130    2.422E+01                                 F               0         Blade 1 X translation displacement, node 5, m
        131   -2.895E+01                                 F               0         Blade 1 Y translation displacement, node 5, m
        132   -1.815E+01                                 F               0         Blade 1 Z translation displacement, node 5, m
        133    2.414E+01                                 F               0         Blade 1 X translation displacement, node 6, m
        134   -3.242E+01                                 F               0         Blade 1 Y translation displacement, node 6, m
        135   -2.033E+01                                 F               0         Blade 1 Z translation displacement, node 6, m
        136    2.406E+01                                 F               0         Blade 1 X translation displacement, node 7, m
        137   -3.589E+01                                 F               0         Blade 1 Y translation displacement, node 7, m
        138   -2.250E+01                                 F               0         Blade 1 Z translation displacement, node 7, m
        139    2.398E+01                                 F               0         Blade 1 X translation displacement, node 8, m
        140   -3.937E+01                                 F               0         Blade 1 Y translation displacement, node 8, m
        141   -2.468E+01                                 F               0         Blade 1 Z translation displacement, node 8, m
        142    2.390E+01                                 F               0         Blade 1 X translation displacement, node 9, m
        143   -4.284E+01                                 F               0         Blade 1 Y translation displacement, node 9, m
        144   -2.686E+01                                 F               0         Blade 1 Z translation displacement, node 9, m
        145    2.383E+01                                 F               0         Blade 1 X translation displacement, node 10, m
        146   -4.631E+01                                 F               0         Blade 1 Y translation displacement, node 10, m
        147   -2.903E+01                                 F               0         Blade 1 Z translation displacement, node 10, m
        148    2.375E+01                                 F               0         Blade 1 X translation displacement, node 11, m
        149   -4.979E+01                                 F               0         Blade 1 Y translation displacement, node 11, m
        150   -3.121E+01                                 F               0         Blade 1 Z translation displacement, node 11, m
        151    2.367E+01                                 F               0         Blade 1 X translation displacement, node 12, m
        152   -5.326E+01                                 F               0         Blade 1 Y translation displacement, node 12, m
        153   -3.338E+01                                 F               0         Blade 1 Z translation displacement, node 12, m
        154    2.359E+01                                 F               0         Blade 1 X translation displacement, node 13, m
        155   -5.673E+01                                 F               0         Blade 1 Y translation displacement, node 13, m
        156   -3.556E+01                                 F               0         Blade 1 Z translation displacement, node 13, m
        157    2.351E+01                                 F               0         Blade 1 X translation displacement, node 14, m
        158   -6.021E+01                                 F               0         Blade 1 Y translation displacement, node 14, m
        159   -3.774E+01                                 F               0         Blade 1 Z translation displacement, node 14, m
        160    2.343E+01                                 F               0         Blade 1 X translation displacement, node 15, m
        161   -6.368E+01                                 F               0         Blade 1 Y translation displacement, node 15, m
        162   -3.991E+01                                 F               0         Blade 1 Z translation displacement, node 15, m
        163    2.335E+01                                 F               0         Blade 1 X translation displacement, node 16, m
        164   -6.715E+01                                 F               0         Blade 1 Y translation displacement, node 16, m
        165   -4.209E+01                                 F               0         Blade 1 Z translation displacement, node 16, m
        166    2.327E+01                                 F               0         Blade 1 X translation displacement, node 17, m
        167   -7.062E+01                                 F               0         Blade 1 Y translation displacement, node 17, m
        168   -4.426E+01                                 F               0         Blade 1 Z translation displacement, node 17, m
        169    2.319E+01                                 F               0         Blade 1 X translation displacement, node 18, m
        170   -7.410E+01                                 F               0         Blade 1 Y translation displacement, node 18, m
        171   -4.644E+01                                 F               0         Blade 1 Z translation displacement, node 18, m
        172    2.311E+01                                 F               0         Blade 1 X translation displacement, node 19, m
        173   -7.757E+01                                 F               0         Blade 1 Y translation displacement, node 19, m
        174   -4.862E+01                                 F               0         Blade 1 Z translation displacement, node 19, m
        175    2.303E+01                                 F               0         Blade 1 X translation displacement, node 20, m
        176   -8.104E+01                                 F               0         Blade 1 Y translation displacement, node 20, m
        177   -5.079E+01                                 F               0         Blade 1 Z translation displacement, node 20, m
        178    2.295E+01                                 F               0         Blade 1 X translation displacement, node 21, m
        179   -8.452E+01                                 F               0         Blade 1 Y translation displacement, node 21, m
        180   -5.297E+01                                 F               0         Blade 1 Z translation displacement, node 21, m
        181    2.287E+01                                 F               0         Blade 1 X translation displacement, node 22, m
        182   -8.799E+01                                 F               0         Blade 1 Y translation displacement, node 22, m
        183   -5.514E+01                                 F               0         Blade 1 Z translation displacement, node 22, m
        184    2.279E+01                                 F               0         Blade 1 X translation displacement, node 23, m
        185   -9.146E+01                                 F               0         Blade 1 Y translation displacement, node 23, m
        186   -5.732E+01                                 F               0         Blade 1 Z translation displacement, node 23, m
        187    2.271E+01                                 F               0         Blade 1 X translation displacement, node 24, m
        188   -9.494E+01                                 F               0         Blade 1 Y translation displacement, node 24, m
        189   -5.949E+01                                 F               0         Blade 1 Z translation displacement, node 24, m
        190    2.263E+01                                 F               0         Blade 1 X translation displacement, node 25, m
        191   -9.841E+01                                 F               0         Blade 1 Y translation displacement, node 25, m
        192   -6.167E+01                                 F               0         Blade 1 Z translation displacement, node 25, m
        193    2.255E+01                                 F               0         Blade 1 X translation displacement, node 26, m
        194   -1.019E+02                                 F               0         Blade 1 Y translation displacement, node 26, m
        195   -6.385E+01                                 F               0         Blade 1 Z translation displacement, node 26, m
        196    2.248E+01                                 F               0         Blade 1 X translation displacement, node 27, m
        197   -1.054E+02                                 F               0         Blade 1 Y translation displacement, node 27, m
        198   -6.602E+01                                 F               0         Blade 1 Z translation displacement, node 27, m
        199    2.241E+01                                 F               0         Blade 1 X translation displacement, node 28, m
        200   -1.083E+02                                 F               0         Blade 1 Y translation displacement, node 28, m
        201   -6.787E+01                                 F               0         Blade 1 Z translation displacement, node 28, m
        202    7.786E-01, -2.114E-01, -5.908E-01         F               0         Blade 1 X orientation angle, node 1, rad
        203    6.218E-01,  3.859E-01,  6.814E-01         F               0         Blade 1 Y orientation angle, node 1, rad
        204    8.400E-02, -8.980E-01,  4.319E-01         F               0         Blade 1 Z orientation angle, node 1, rad
        205    7.786E-01, -2.114E-01, -5.908E-01         F               0         Blade 1 X orientation angle, node 2, rad
        206    6.218E-01,  3.859E-01,  6.814E-01         F               0         Blade 1 Y orientation angle, node 2, rad
        207    8.400E-02, -8.980E-01,  4.319E-01         F               0         Blade 1 Z orientation angle, node 2, rad
        208    9.038E-01, -1.139E-01, -4.125E-01         F               0         Blade 1 X orientation angle, node 3, rad
        209    4.196E-01,  4.250E-01,  8.021E-01         F               0         Blade 1 Y orientation angle, node 3, rad
        210    8.400E-02, -8.980E-01,  4.319E-01         F               0         Blade 1 Z orientation angle, node 3, rad
        211    9.207E-01, -9.581E-02, -3.783E-01         F               0         Blade 1 X orientation angle, node 4, rad
        212    3.811E-01,  4.295E-01,  8.188E-01         F               0         Blade 1 Y orientation angle, node 4, rad
        213    8.400E-02, -8.980E-01,  4.319E-01         F               0         Blade 1 Z orientation angle, node 4, rad
        214    9.329E-01, -8.152E-02, -3.509E-01         F               0         Blade 1 X orientation angle, node 5, rad
        215    3.503E-01,  4.324E-01,  8.308E-01         F               0         Blade 1 Y orientation angle, node 5, rad
        216    8.400E-02, -8.980E-01,  4.319E-01         F               0         Blade 1 Z orientation angle, node 5, rad
        217    9.418E-01, -7.002E-02, -3.287E-01         F               0         Blade 1 X orientation angle, node 6, rad
        218    3.254E-01,  4.344E-01,  8.399E-01         F               0         Blade 1 Y orientation angle, node 6, rad
        219    8.400E-02, -8.980E-01,  4.319E-01         F               0         Blade 1 Z orientation angle, node 6, rad
        220    9.487E-01, -6.053E-02, -3.103E-01         F               0         Blade 1 X orientation angle, node 7, rad
        221    3.048E-01,  4.358E-01,  8.468E-01         F               0         Blade 1 Y orientation angle, node 7, rad
        222    8.400E-02, -8.980E-01,  4.319E-01         F               0         Blade 1 Z orientation angle, node 7, rad
        223    9.541E-01, -5.261E-02, -2.949E-01         F               0         Blade 1 X orientation angle, node 8, rad
        224    2.876E-01,  4.369E-01,  8.523E-01         F               0         Blade 1 Y orientation angle, node 8, rad
        225    8.400E-02, -8.980E-01,  4.319E-01         F               0         Blade 1 Z orientation angle, node 8, rad
        226    9.584E-01, -4.589E-02, -2.818E-01         F               0         Blade 1 X orientation angle, node 9, rad
        227    2.729E-01,  4.376E-01,  8.568E-01         F               0         Blade 1 Y orientation angle, node 9, rad