
Linearized model: Predictions were generated on 06-Feb-2024 at 08:44:08 using OpenFAST, compiled as a 64-bit application using single precision at commit v3.5.1
 linked with  NWTC Subroutine Library; ElastoDyn; InflowWind; AeroDyn; ServoDyn; HydroDyn; MAP++ (<1.20.10>, <Oct-20-2023>)

Description from the FAST input file: CCT-9 Campign 4 model. Input files to be run with OpenFAST 3.5.0. GitHub branch from Lu Wang (https://github.com/luwang00/openfast/tree/dev) compiled on March 7, 2023.

Simulation information:
   Simulation time:                  2505.3750 s
   Rotor Speed:                         0.8852 rad/s
   Azimuth:                             1.6275 rad
   Wind Speed:                         10.0000 m/s
   Number of continuous states:         0
   Number of discrete states:           0
   Number of constraint states:         0
   Number of inputs:                 1746
   Number of outputs:                   4
   Jacobians included in this file?    No

Order of inputs:
     Column   Operating Point                     Rotating Frame? Derivative Order Description
   ---------- ---------------                     --------------- ---------------- -----------
          1    1.391E+01                                 F               0         Tower X translation displacement, node 1, m
          2    8.237E-02                                 F               0         Tower Y translation displacement, node 1, m
          3   -1.833E-01                                 F               0         Tower Z translation displacement, node 1, m
          4    1.488E+01                                 F               0         Tower X translation displacement, node 2, m
          5    1.206E-01                                 F               0         Tower Y translation displacement, node 2, m
          6   -2.219E-01                                 F               0         Tower Z translation displacement, node 2, m
          7    1.588E+01                                 F               0         Tower X translation displacement, node 3, m
          8    1.595E-01                                 F               0         Tower Y translation displacement, node 3, m
          9   -2.621E-01                                 F               0         Tower Z translation displacement, node 3, m
         10    1.689E+01                                 F               0         Tower X translation displacement, node 4, m
         11    1.988E-01                                 F               0         Tower Y translation displacement, node 4, m
         12   -3.036E-01                                 F               0         Tower Z translation displacement, node 4, m
         13    1.791E+01                                 F               0         Tower X translation displacement, node 5, m
         14    2.386E-01                                 F               0         Tower Y translation displacement, node 5, m
         15   -3.461E-01                                 F               0         Tower Z translation displacement, node 5, m
         16    1.894E+01                                 F               0         Tower X translation displacement, node 6, m
         17    2.788E-01                                 F               0         Tower Y translation displacement, node 6, m
         18   -3.894E-01                                 F               0         Tower Z translation displacement, node 6, m
         19    1.998E+01                                 F               0         Tower X translation displacement, node 7, m
         20    3.192E-01                                 F               0         Tower Y translation displacement, node 7, m
         21   -4.333E-01                                 F               0         Tower Z translation displacement, node 7, m
         22    2.103E+01                                 F               0         Tower X translation displacement, node 8, m
         23    3.599E-01                                 F               0         Tower Y translation displacement, node 8, m
         24   -4.777E-01                                 F               0         Tower Z translation displacement, node 8, m
         25    2.208E+01                                 F               0         Tower X translation displacement, node 9, m
         26    4.008E-01                                 F               0         Tower Y translation displacement, node 9, m
         27   -5.225E-01                                 F               0         Tower Z translation displacement, node 9, m
         28    2.313E+01                                 F               0         Tower X translation displacement, node 10, m
         29    4.418E-01                                 F               0         Tower Y translation displacement, node 10, m
         30   -5.675E-01                                 F               0         Tower Z translation displacement, node 10, m
         31    2.419E+01                                 F               0         Tower X translation displacement, node 11, m
         32    4.829E-01                                 F               0         Tower Y translation displacement, node 11, m
         33   -6.126E-01                                 F               0         Tower Z translation displacement, node 11, m
         34    9.969E-01,  1.273E-03, -7.829E-02         F               0         Tower X orientation angle, node 1, rad
         35   -1.510E-03,  1.000E+00, -2.965E-03         F               0         Tower Y orientation angle, node 1, rad
         36    7.829E-02,  3.074E-03,  9.969E-01         F               0         Tower Z orientation angle, node 1, rad
         37    9.968E-01,  1.268E-03, -7.983E-02         F               0         Tower X orientation angle, node 2, rad
         38   -1.513E-03,  1.000E+00, -3.011E-03         F               0         Tower Y orientation angle, node 2, rad
         39    7.982E-02,  3.122E-03,  9.968E-01         F               0         Tower Z orientation angle, node 2, rad
         40    9.967E-01,  1.264E-03, -8.116E-02         F               0         Tower X orientation angle, node 3, rad
         41   -1.517E-03,  1.000E+00, -3.052E-03         F               0         Tower Y orientation angle, node 3, rad
         42    8.116E-02,  3.165E-03,  9.967E-01         F               0         Tower Z orientation angle, node 3, rad
         43    9.966E-01,  1.260E-03, -8.228E-02         F               0         Tower X orientation angle, node 4, rad
         44   -1.520E-03,  1.000E+00, -3.088E-03         F               0         Tower Y orientation angle, node 4, rad
         45    8.228E-02,  3.203E-03,  9.966E-01         F               0         Tower Z orientation angle, node 4, rad
         46    9.965E-01,  1.257E-03, -8.320E-02         F               0         Tower X orientation angle, node 5, rad
         47   -1.522E-03,  1.000E+00, -3.119E-03         F               0         Tower Y orientation angle, node 5, rad
         48    8.319E-02,  3.235E-03,  9.965E-01         F               0         Tower Z orientation angle, node 5, rad
         49    9.965E-01,  1.255E-03, -8.392E-02         F               0         Tower X orientation angle, node 6, rad
         50   -1.524E-03,  1.000E+00, -3.146E-03         F               0         Tower Y orientation angle, node 6, rad
         51    8.391E-02,  3.262E-03,  9.965E-01         F               0         Tower Z orientation angle, node 6, rad
         52    9.964E-01,  1.253E-03, -8.445E-02         F               0         Tower X orientation angle, node 7, rad
         53   -1.526E-03,  1.000E+00, -3.167E-03         F               0         Tower Y orientation angle, node 7, rad
         54    8.445E-02,  3.284E-03,  9.964E-01         F               0         Tower Z orientation angle, node 7, rad
         55    9.964E-01,  1.252E-03, -8.484E-02         F               0         Tower X orientation angle, node 8, rad
         56   -1.527E-03,  1.000E+00, -3.183E-03         F               0         Tower Y orientation angle, node 8, rad
         57    8.483E-02,  3.301E-03,  9.964E-01         F               0         Tower Z orientation angle, node 8, rad
         58    9.964E-01,  1.251E-03, -8.509E-02         F               0         Tower X orientation angle, node 9, rad
         59   -1.528E-03,  1.000E+00, -3.195E-03         F               0         Tower Y orientation angle, node 9, rad
         60    8.509E-02,  3.314E-03,  9.964E-01         F               0         Tower Z orientation angle, node 9, rad
         61    9.964E-01,  1.250E-03, -8.525E-02         F               0         Tower X orientation angle, node 10, rad
         62   -1.529E-03,  1.000E+00, -3.203E-03         F               0         Tower Y orientation angle, node 10, rad
         63    8.524E-02,  3.322E-03,  9.964E-01         F               0         Tower Z orientation angle, node 10, rad
         64    9.964E-01,  1.250E-03, -8.532E-02         F               0         Tower X orientation angle, node 11, rad
         65   -1.529E-03,  1.000E+00, -3.207E-03         F               0         Tower Y orientation angle, node 11, rad
         66    8.532E-02,  3.326E-03,  9.963E-01         F               0         Tower Z orientation angle, node 11, rad
         67    2.904E-04                                 F               0         Tower X translation velocity, node 1, m/s
         68    4.113E-03                                 F               0         Tower Y translation velocity, node 1, m/s
         69   -3.743E-04                                 F               0         Tower Z translation velocity, node 1, m/s
         70    4.041E-04                                 F               0         Tower X translation velocity, node 2, m/s
         71    6.512E-03                                 F               0         Tower Y translation velocity, node 2, m/s
         72   -3.908E-04                                 F               0         Tower Z translation velocity, node 2, m/s
         73    5.407E-04                                 F               0         Tower X translation velocity, node 3, m/s
         74    8.976E-03                                 F               0         Tower Y translation velocity, node 3, m/s
         75   -4.096E-04                                 F               0         Tower Z translation velocity, node 3, m/s
         76    6.952E-04                                 F               0         Tower X translation velocity, node 4, m/s
         77    1.149E-02                                 F               0         Tower Y translation velocity, node 4, m/s
         78   -4.303E-04                                 F               0         Tower Z translation velocity, node 4, m/s
         79    8.649E-04                                 F               0         Tower X translation velocity, node 5, m/s
         80    1.405E-02                                 F               0         Tower Y translation velocity, node 5, m/s
         81   -4.527E-04                                 F               0         Tower Z translation velocity, node 5, m/s
         82    1.047E-03                                 F               0         Tower X translation velocity, node 6, m/s
         83    1.665E-02                                 F               0         Tower Y translation velocity, node 6, m/s
         84   -4.764E-04                                 F               0         Tower Z translation velocity, node 6, m/s
         85    1.239E-03                                 F               0         Tower X translation velocity, node 7, m/s
         86    1.927E-02                                 F               0         Tower Y translation velocity, node 7, m/s
         87   -5.013E-04                                 F               0         Tower Z translation velocity, node 7, m/s
         88    1.439E-03                                 F               0         Tower X translation velocity, node 8, m/s
         89    2.192E-02                                 F               0         Tower Y translation velocity, node 8, m/s
         90   -5.270E-04                                 F               0         Tower Z translation velocity, node 8, m/s
         91    1.645E-03                                 F               0         Tower X translation velocity, node 9, m/s
         92    2.458E-02                                 F               0         Tower Y translation velocity, node 9, m/s
         93   -5.534E-04                                 F               0         Tower Z translation velocity, node 9, m/s
         94    1.856E-03                                 F               0         Tower X translation velocity, node 10, m/s
         95    2.726E-02                                 F               0         Tower Y translation velocity, node 10, m/s
         96   -5.803E-04                                 F               0         Tower Z translation velocity, node 10, m/s
         97    2.068E-03                                 F               0         Tower X translation velocity, node 11, m/s
         98    2.995E-02                                 F               0         Tower Y translation velocity, node 11, m/s
         99   -6.075E-04                                 F               0         Tower Z translation velocity, node 11, m/s
        100    2.490E+01                                 F               0         Hub X translation displacement, node 1, m
        101    4.955E-01                                 F               0         Hub Y translation displacement, node 1, m
        102    2.803E-01                                 F               0         Hub Z translation displacement, node 1, m
        103    9.820E-01,  8.957E-04, -1.890E-01         F               0         Hub X orientation angle, node 1, rad
        104    1.888E-01, -5.319E-02,  9.806E-01         F               0         Hub Y orientation angle, node 1, rad
        105   -9.176E-03, -9.986E-01, -5.240E-02         F               0         Hub Z orientation angle, node 1, rad
        106    8.690E-01                                 F               0         Hub X rotation velocity, node 1, rad/s
        107    8.099E-04                                 F               0         Hub Y rotation velocity, node 1, rad/s
        108   -1.674E-01                                 F               0         Hub Z rotation velocity, node 1, rad/s
        109    9.759E-01,  2.473E-03, -2.180E-01         F               0         Blade root 1 X orientation angle, node 1, rad
        110    2.178E-01, -5.314E-02,  9.745E-01         F               0         Blade root 1 Y orientation angle, node 1, rad
        111   -9.176E-03, -9.986E-01, -5.240E-02         F               0         Blade root 1 Z orientation angle, node 1, rad
        112    9.846E-01,  2.576E-02, -1.730E-01         F               0         Blade root 2 X orientation angle, node 1, rad
        113   -7.316E-02, -8.378E-01, -5.410E-01         F               0         Blade root 2 Y orientation angle, node 1, rad
        114   -1.589E-01,  5.454E-01, -8.230E-01         F               0         Blade root 2 Z orientation angle, node 1, rad
        115    9.841E-01, -2.555E-02, -1.757E-01         F               0         Blade root 3 X orientation angle, node 1, rad
        116   -5.728E-02,  8.910E-01, -4.503E-01         F               0         Blade root 3 Y orientation angle, node 1, rad
        117    1.681E-01,  4.532E-01,  8.754E-01         F               0         Blade root 3 Z orientation angle, node 1, rad
        118    2.427E+01                                 F               0         Blade 1 X translation displacement, node 1, m
        119   -5.037E+00                                 F               0         Blade 1 Y translation displacement, node 1, m
        120   -5.520E+00                                 F               0         Blade 1 Z translation displacement, node 1, m
        121    2.411E+01                                 F               0         Blade 1 X translation displacement, node 2, m
        122   -6.370E+00                                 F               0         Blade 1 Y translation displacement, node 2, m
        123   -6.917E+00                                 F               0         Blade 1 Z translation displacement, node 2, m
        124    2.205E+01                                 F               0         Blade 1 X translation displacement, node 3, m
        125   -2.450E+01                                 F               0         Blade 1 Y translation displacement, node 3, m
        126   -2.592E+01                                 F               0         Blade 1 Z translation displacement, node 3, m
        127    2.161E+01                                 F               0         Blade 1 X translation displacement, node 4, m
        128   -2.836E+01                                 F               0         Blade 1 Y translation displacement, node 4, m
        129   -2.997E+01                                 F               0         Blade 1 Z translation displacement, node 4, m
        130    2.117E+01                                 F               0         Blade 1 X translation displacement, node 5, m
        131   -3.222E+01                                 F               0         Blade 1 Y translation displacement, node 5, m
        132   -3.402E+01                                 F               0         Blade 1 Z translation displacement, node 5, m
        133    2.073E+01                                 F               0         Blade 1 X translation displacement, node 6, m
        134   -3.608E+01                                 F               0         Blade 1 Y translation displacement, node 6, m
        135   -3.807E+01                                 F               0         Blade 1 Z translation displacement, node 6, m
        136    2.029E+01                                 F               0         Blade 1 X translation displacement, node 7, m
        137   -3.995E+01                                 F               0         Blade 1 Y translation displacement, node 7, m
        138   -4.212E+01                                 F               0         Blade 1 Z translation displacement, node 7, m
        139    1.985E+01                                 F               0         Blade 1 X translation displacement, node 8, m
        140   -4.381E+01                                 F               0         Blade 1 Y translation displacement, node 8, m
        141   -4.617E+01                                 F               0         Blade 1 Z translation displacement, node 8, m
        142    1.941E+01                                 F               0         Blade 1 X translation displacement, node 9, m
        143   -4.767E+01                                 F               0         Blade 1 Y translation displacement, node 9, m
        144   -5.022E+01                                 F               0         Blade 1 Z translation displacement, node 9, m
        145    1.897E+01                                 F               0         Blade 1 X translation displacement, node 10, m
        146   -5.153E+01                                 F               0         Blade 1 Y translation displacement, node 10, m
        147   -5.427E+01                                 F               0         Blade 1 Z translation displacement, node 10, m
        148    1.853E+01                                 F               0         Blade 1 X translation displacement, node 11, m
        149   -5.539E+01                                 F               0         Blade 1 Y translation displacement, node 11, m
        150   -5.831E+01                                 F               0         Blade 1 Z translation displacement, node 11, m
        151    1.809E+01                                 F               0         Blade 1 X translation displacement, node 12, m
        152   -5.926E+01                                 F               0         Blade 1 Y translation displacement, node 12, m
        153   -6.236E+01                                 F               0         Blade 1 Z translation displacement, node 12, m
        154    1.765E+01                                 F               0         Blade 1 X translation displacement, node 13, m
        155   -6.312E+01                                 F               0         Blade 1 Y translation displacement, node 13, m
        156   -6.641E+01                                 F               0         Blade 1 Z translation displacement, node 13, m
        157    1.721E+01                                 F               0         Blade 1 X translation displacement, node 14, m
        158   -6.698E+01                                 F               0         Blade 1 Y translation displacement, node 14, m
        159   -7.046E+01                                 F               0         Blade 1 Z translation displacement, node 14, m
        160    1.677E+01                                 F               0         Blade 1 X translation displacement, node 15, m
        161   -7.084E+01                                 F               0         Blade 1 Y translation displacement, node 15, m
        162   -7.451E+01                                 F               0         Blade 1 Z translation displacement, node 15, m
        163    1.633E+01                                 F               0         Blade 1 X translation displacement, node 16, m
        164   -7.471E+01                                 F               0         Blade 1 Y translation displacement, node 16, m
        165   -7.856E+01                                 F               0         Blade 1 Z translation displacement, node 16, m
        166    1.589E+01                                 F               0         Blade 1 X translation displacement, node 17, m
        167   -7.857E+01                                 F               0         Blade 1 Y translation displacement, node 17, m
        168   -8.261E+01                                 F               0         Blade 1 Z translation displacement, node 17, m
        169    1.545E+01                                 F               0         Blade 1 X translation displacement, node 18, m
        170   -8.243E+01                                 F               0         Blade 1 Y translation displacement, node 18, m
        171   -8.666E+01                                 F               0         Blade 1 Z translation displacement, node 18, m
        172    1.501E+01                                 F               0         Blade 1 X translation displacement, node 19, m
        173   -8.629E+01                                 F               0         Blade 1 Y translation displacement, node 19, m
        174   -9.071E+01                                 F               0         Blade 1 Z translation displacement, node 19, m
        175    1.457E+01                                 F               0         Blade 1 X translation displacement, node 20, m
        176   -9.015E+01                                 F               0         Blade 1 Y translation displacement, node 20, m
        177   -9.476E+01                                 F               0         Blade 1 Z translation displacement, node 20, m
        178    1.413E+01                                 F               0         Blade 1 X translation displacement, node 21, m
        179   -9.402E+01                                 F               0         Blade 1 Y translation displacement, node 21, m
        180   -9.881E+01                                 F               0         Blade 1 Z translation displacement, node 21, m
        181    1.369E+01                                 F               0         Blade 1 X translation displacement, node 22, m
        182   -9.788E+01                                 F               0         Blade 1 Y translation displacement, node 22, m
        183   -1.029E+02                                 F               0         Blade 1 Z translation displacement, node 22, m
        184    1.325E+01                                 F               0         Blade 1 X translation displacement, node 23, m
        185   -1.017E+02                                 F               0         Blade 1 Y translation displacement, node 23, m
        186   -1.069E+02                                 F               0         Blade 1 Z translation displacement, node 23, m
        187    1.281E+01                                 F               0         Blade 1 X translation displacement, node 24, m
        188   -1.056E+02                                 F               0         Blade 1 Y translation displacement, node 24, m
        189   -1.110E+02                                 F               0         Blade 1 Z translation displacement, node 24, m
        190    1.237E+01                                 F               0         Blade 1 X translation displacement, node 25, m
        191   -1.095E+02                                 F               0         Blade 1 Y translation displacement, node 25, m
        192   -1.150E+02                                 F               0         Blade 1 Z translation displacement, node 25, m
        193    1.193E+01                                 F               0         Blade 1 X translation displacement, node 26, m
        194   -1.133E+02                                 F               0         Blade 1 Y translation displacement, node 26, m
        195   -1.191E+02                                 F               0         Blade 1 Z translation displacement, node 26, m
        196    1.150E+01                                 F               0         Blade 1 X translation displacement, node 27, m
        197   -1.172E+02                                 F               0         Blade 1 Y translation displacement, node 27, m
        198   -1.231E+02                                 F               0         Blade 1 Z translation displacement, node 27, m
        199    1.112E+01                                 F               0         Blade 1 X translation displacement, node 28, m
        200   -1.205E+02                                 F               0         Blade 1 Y translation displacement, node 28, m
        201   -1.265E+02                                 F               0         Blade 1 Z translation displacement, node 28, m
        202    7.692E-01,  2.644E-02, -6.384E-01         F               0         Blade 1 X orientation angle, node 1, rad
        203    6.389E-01, -4.617E-02,  7.679E-01         F               0         Blade 1 Y orientation angle, node 1, rad
        204   -9.176E-03, -9.986E-01, -5.240E-02         F               0         Blade 1 Z orientation angle, node 1, rad
        205    7.692E-01,  2.644E-02, -6.384E-01         F               0         Blade 1 X orientation angle, node 2, rad
        206    6.389E-01, -4.617E-02,  7.679E-01         F               0         Blade 1 Y orientation angle, node 2, rad
        207   -9.176E-03, -9.986E-01, -5.240E-02         F               0         Blade 1 Z orientation angle, node 2, rad
        208    8.987E-01,  1.474E-02, -4.382E-01         F               0         Blade 1 X orientation angle, node 3, rad
        209    4.384E-01, -5.112E-02,  8.973E-01         F               0         Blade 1 Y orientation angle, node 3, rad
        210   -9.176E-03, -9.986E-01, -5.240E-02         F               0         Blade 1 Z orientation angle, node 3, rad
        211    9.164E-01,  1.257E-02, -4.000E-01         F               0         Blade 1 X orientation angle, node 4, rad
        212    4.000E-01, -5.170E-02,  9.150E-01         F               0         Blade 1 Y orientation angle, node 4, rad
        213   -9.176E-03, -9.986E-01, -5.240E-02         F               0         Blade 1 Z orientation angle, node 4, rad
        214    9.292E-01,  1.085E-02, -3.694E-01         F               0         Blade 1 X orientation angle, node 5, rad
        215    3.694E-01, -5.208E-02,  9.278E-01         F               0         Blade 1 Y orientation angle, node 5, rad
        216   -9.176E-03, -9.986E-01, -5.240E-02         F               0         Blade 1 Z orientation angle, node 5, rad
        217    9.387E-01,  9.462E-03, -3.447E-01         F               0         Blade 1 X orientation angle, node 6, rad
        218    3.447E-01, -5.235E-02,  9.373E-01         F               0         Blade 1 Y orientation angle, node 6, rad
        219   -9.176E-03, -9.986E-01, -5.240E-02         F               0         Blade 1 Z orientation angle, node 6, rad
        220    9.460E-01,  8.318E-03, -3.241E-01         F               0         Blade 1 X orientation angle, node 7, rad
        221    3.241E-01, -5.255E-02,  9.446E-01         F               0         Blade 1 Y orientation angle, node 7, rad
        222   -9.176E-03, -9.986E-01, -5.240E-02         F               0         Blade 1 Z orientation angle, node 7, rad
        223    9.517E-01,  7.363E-03, -3.069E-01         F               0         Blade 1 X orientation angle, node 8, rad
        224    3.069E-01, -5.269E-02,  9.503E-01         F               0         Blade 1 Y orientation angle, node 8, rad
        225   -9.176E-03, -9.986E-01, -5.240E-02         F               0         Blade 1 Z orientation angle, node 8, rad
        226    9.563E-01,  6.552E-03, -2.923E-01         F               0         Blade 1 X orientation angle, node 9, rad
        227    2.922E-01, -5.280E-02,  9.549E-01         F               0         Blade 1 Y orientation angle, node 9, rad