
Linearized model: Predictions were generated on 06-Feb-2024 at 08:44:08 using OpenFAST, compiled as a 64-bit application using single precision at commit v3.5.1
 linked with  NWTC Subroutine Library; ElastoDyn; InflowWind; AeroDyn; ServoDyn; HydroDyn; MAP++ (<1.20.10>, <Oct-20-2023>)

Description from the FAST input file: CCT-9 Campign 4 model. Input files to be run with OpenFAST 3.5.0. GitHub branch from Lu Wang (https://github.com/luwang00/openfast/tree/dev) compiled on March 7, 2023.

Simulation information:
   Simulation time:                  2504.9750 s
   Rotor Speed:                         0.8852 rad/s
   Azimuth:                             1.2734 rad
   Wind Speed:                         10.0000 m/s
   Number of continuous states:         0
   Number of discrete states:           0
   Number of constraint states:         0
   Number of inputs:                   37
   Number of outputs:                   7
   Jacobians included in this file?    No

Order of inputs:
     Column   Operating Point                     Rotating Frame? Derivative Order Description
   ---------- ---------------                     --------------- ---------------- -----------
          1    1.247E+01                                 F               0         WAMIT X translation displacement, node 1, m
          2    2.574E-02                                 F               0         WAMIT Y translation displacement, node 1, m
          3   -1.268E-01                                 F               0         WAMIT Z translation displacement, node 1, m
          4    9.969E-01,  1.299E-03, -7.829E-02         F               0         WAMIT X orientation angle, node 1, rad
          5   -1.529E-03,  1.000E+00, -2.875E-03         F               0         WAMIT Y orientation angle, node 1, rad
          6    7.828E-02,  2.986E-03,  9.969E-01         F               0         WAMIT Z orientation angle, node 1, rad
          7    2.430E-04                                 F               0         WAMIT X translation velocity, node 1, m/s
          8    7.102E-04                                 F               0         WAMIT Y translation velocity, node 1, m/s
          9   -1.563E-04                                 F               0         WAMIT Z translation velocity, node 1, m/s
         10   -2.475E-04                                 F               0         WAMIT X rotation velocity, node 1, rad/s
         11    1.350E-05                                 F               0         WAMIT Y rotation velocity, node 1, rad/s
         12   -4.682E-05                                 F               0         WAMIT Z rotation velocity, node 1, rad/s
         13   -2.049E-04                                 F               0         WAMIT X translation acceleration, node 1, m/s^2
         14   -3.445E-04                                 F               0         WAMIT Y translation acceleration, node 1, m/s^2
         15   -4.843E-04                                 F               0         WAMIT Z translation acceleration, node 1, m/s^2
         16    1.243E-04                                 F               0         WAMIT X rotation acceleration, node 1, rad/s^2
         17   -9.316E-06                                 F               0         WAMIT Y rotation acceleration, node 1, rad/s^2
         18   -5.517E-05                                 F               0         WAMIT Z rotation acceleration, node 1, rad/s^2
         19    1.247E+01                                 F               0         Platform-RefPt X translation displacement, node 1, m
         20    2.574E-02                                 F               0         Platform-RefPt Y translation displacement, node 1, m
         21   -1.268E-01                                 F               0         Platform-RefPt Z translation displacement, node 1, m
         22    9.969E-01,  1.299E-03, -7.829E-02         F               0         Platform-RefPt X orientation angle, node 1, rad
         23   -1.529E-03,  1.000E+00, -2.875E-03         F               0         Platform-RefPt Y orientation angle, node 1, rad
         24    7.828E-02,  2.986E-03,  9.969E-01         F               0         Platform-RefPt Z orientation angle, node 1, rad
         25    2.430E-04                                 F               0         Platform-RefPt X translation velocity, node 1, m/s
         26    7.102E-04                                 F               0         Platform-RefPt Y translation velocity, node 1, m/s
         27   -1.563E-04                                 F               0         Platform-RefPt Z translation velocity, node 1, m/s
         28   -2.475E-04                                 F               0         Platform-RefPt X rotation velocity, node 1, rad/s
         29    1.350E-05                                 F               0         Platform-RefPt Y rotation velocity, node 1, rad/s
         30   -4.682E-05                                 F               0         Platform-RefPt Z rotation velocity, node 1, rad/s
         31   -2.049E-04                                 F               0         Platform-RefPt X translation acceleration, node 1, m/s^2
         32   -3.445E-04                                 F               0         Platform-RefPt Y translation acceleration, node 1, m/s^2
         33   -4.843E-04                                 F               0         Platform-RefPt Z translation acceleration, node 1, m/s^2
         34    1.243E-04                                 F               0         Platform-RefPt X rotation acceleration, node 1, rad/s^2
         35   -9.316E-06                                 F               0         Platform-RefPt Y rotation acceleration, node 1, rad/s^2
         36   -5.517E-05                                 F               0         Platform-RefPt Z rotation acceleration, node 1, rad/s^2
         37    0.000E+00                                 F               0         Extended input: wave elevation at platform ref point, m

Order of outputs:
        Row   Operating Point                     Rotating Frame? Derivative Order Description
   ---------- ---------------                     --------------- ---------------- -----------
          1    0.000E+00                                 F               0         Wave1Elev, (m)
          2   -8.458E+04                                 F               0         HydroFxi, (N)
          3   -9.096E+03                                 F               0         HydroFyi, (N)
          4    2.039E+08                                 F               0         HydroFzi, (N)
          5    4.971E+06                                 F               0         HydroMxi, (N-m)
          6   -1.675E+08                                 F               0         HydroMyi, (N-m)
          7    1.081E+06                                 F               0         HydroMzi, (N-m)


Linearized state matrices:

D: 7 x 37
    0.000E+00  0.000E+00  0.000E+00  0.000E+00  0.000E+00  0.000E+00  0.000E+00  0.000E+00  0.000E+00  0.000E+00  0.000E+00  0.000E+00  0.000E+00  0.000E+00  0.000E+00  0.000E+00  0.000E+00  0.000E+00  0.000E+00  0.000E+00  0.000E+00  0.000E+00  0.000E+00  0.000E+00  0.000E+00  0.000E+00  0.000E+00  0.000E+00  0.000E+00  0.000E+00  0.000E+00  0.000E+00  0.000E+00  0.000E+00  0.000E+00  0.000E+00  0.000E+00
   -6.860E+03  0.000E+00  0.000E+00  0.000E+00  0.000E+00  0.000E+00 -2.822E+05  0.000E+00  0.000E+00  0.000E+00  0.000E+00  0.000E+00 -9.381E+06  0.000E+00  1.998E+01  0.000E+00  9.827E+07  0.000E+00  0.000E+00  0.000E+00  0.000E+00  0.000E+00  0.000E+00  0.000E+00  0.000E+00  0.000E+00  0.000E+00  0.000E+00  0.000E+00  0.000E+00  0.000E+00  0.000E+00  0.000E+00  0.000E+00  0.000E+00  0.000E+00  0.000E+00
    0.000E+00  0.000E+00  0.000E+00  0.000E+00  0.000E+00  0.000E+00  0.000E+00 -2.822E+05  0.000E+00  0.000E+00  0.000E+00  0.000E+00  0.000E+00 -9.381E+06  0.000E+00 -9.827E+07  0.000E+00  1.786E+03  0.000E+00  0.000E+00  0.000E+00  0.000E+00  0.000E+00  0.000E+00  0.000E+00  0.000E+00  0.000E+00  0.000E+00  0.000E+00  0.000E+00  0.000E+00  0.000E+00  0.000E+00  0.000E+00  0.000E+00  0.000E+00  0.000E+00
    0.000E+00  0.000E+00 -4.395E+06  0.000E+00  3.667E+03  0.000E+00  0.000E+00  0.000E+00 -8.063E+05  0.000E+00  0.000E+00  0.000E+00  0.000E+00  0.000E+00 -2.413E+07  0.000E+00  1.765E+04  0.000E+00  0.000E+00  0.000E+00  0.000E+00  0.000E+00  0.000E+00  0.000E+00  0.000E+00  0.000E+00  0.000E+00  0.000E+00  0.000E+00  0.000E+00  0.000E+00  0.000E+00  0.000E+00  0.000E+00  0.000E+00  0.000E+00  0.000E+00
    0.000E+00  2.039E+08  9.096E+03 -2.134E+09  0.000E+00  8.881E+04  0.000E+00  0.000E+00  0.000E+00 -2.783E+09  0.000E+00  0.000E+00  0.000E+00 -9.820E+07  0.000E+00 -1.132E+10  0.000E+00  5.301E+04  0.000E+00 -2.039E+08 -9.096E+03  0.000E+00  0.000E+00  0.000E+00  0.000E+00  0.000E+00  0.000E+00  0.000E+00  0.000E+00  0.000E+00  0.000E+00  0.000E+00  0.000E+00  0.000E+00  0.000E+00  0.000E+00  0.000E+00
   -2.039E+08  0.000E+00 -8.067E+04  0.000E+00 -2.134E+09  0.000E+00  0.000E+00  0.000E+00  0.000E+00  0.000E+00 -2.783E+09  0.000E+00  9.820E+07  0.000E+00  1.938E+04  0.000E+00 -1.132E+10  0.000E+00  2.039E+08  0.000E+00  8.460E+04  0.000E+00  0.000E+00  0.000E+00  0.000E+00  0.000E+00  0.000E+00  0.000E+00  0.000E+00  0.000E+00  0.000E+00  0.000E+00  0.000E+00  0.000E+00  0.000E+00  0.000E+00  0.000E+00
   -9.097E+03  8.458E+04  0.000E+00  0.000E+00  0.000E+00  0.000E+00  0.000E+00  0.000E+00  0.000E+00  0.000E+00  0.000E+00 -2.513E+09  0.000E+00  1.554E+03  0.000E+00  4.404E+04  0.000E+00 -1.959E+10  9.097E+03 -8.458E+04  0.000E+00  0.000E+00  0.000E+00  0.000E+00  0.000E+00  0.000E+00  0.000E+00  0.000E+00  0.000E+00  0.000E+00  0.000E+00  0.000E+00  0.000E+00  0.000E+00  0.000E+00  0.000E+00  0.000E+00
