
Linearized model: Predictions were generated on 06-Feb-2024 at 08:44:08 using OpenFAST, compiled as a 64-bit application using single precision at commit v3.5.1
 linked with  NWTC Subroutine Library; ElastoDyn; InflowWind; AeroDyn; ServoDyn; HydroDyn; MAP++ (<1.20.10>, <Oct-20-2023>)

Description from the FAST input file: CCT-9 Campign 4 model. Input files to be run with OpenFAST 3.5.0. GitHub branch from Lu Wang (https://github.com/luwang00/openfast/tree/dev) compiled on March 7, 2023.

Simulation information:
   Simulation time:                  2502.0000 s
   Rotor Speed:                         0.8858 rad/s
   Azimuth:                             4.9223 rad
   Wind Speed:                         10.0000 m/s
   Number of continuous states:         0
   Number of discrete states:           0
   Number of constraint states:         0
   Number of inputs:                  303
   Number of outputs:                   1
   Jacobians included in this file?    No

Order of inputs:
     Column   Operating Point                     Rotating Frame? Derivative Order Description
   ---------- ---------------                     --------------- ---------------- -----------
          1   -1.080E+01                                 F               0         X-component position of node 1 (hub), m
          2    0.000E+00                                 F               0         Y-component position of node 1 (hub), m
          3    1.497E+02                                 F               0         Z-component position of node 1 (hub), m
          4    1.430E+01                                 F               0         X-component position of node 2 (blade 1, node 1), m
          5    5.732E+00                                 F               0         Y-component position of node 2 (blade 1, node 1), m
          6    1.511E+02                                 F               0         Z-component position of node 2 (blade 1, node 1), m
          7    1.436E+01                                 F               0         X-component position of node 3 (blade 1, node 2), m
          8    7.038E+00                                 F               0         Y-component position of node 3 (blade 1, node 2), m
          9    1.514E+02                                 F               0         Z-component position of node 3 (blade 1, node 2), m
         10    1.505E+01                                 F               0         X-component position of node 4 (blade 1, node 3), m
         11    2.480E+01                                 F               0         Y-component position of node 4 (blade 1, node 3), m
         12    1.551E+02                                 F               0         Z-component position of node 4 (blade 1, node 3), m
         13    1.519E+01                                 F               0         X-component position of node 5 (blade 1, node 4), m
         14    2.858E+01                                 F               0         Y-component position of node 5 (blade 1, node 4), m
         15    1.559E+02                                 F               0         Z-component position of node 5 (blade 1, node 4), m
         16    1.534E+01                                 F               0         X-component position of node 6 (blade 1, node 5), m
         17    3.237E+01                                 F               0         Y-component position of node 6 (blade 1, node 5), m
         18    1.567E+02                                 F               0         Z-component position of node 6 (blade 1, node 5), m
         19    1.549E+01                                 F               0         X-component position of node 7 (blade 1, node 6), m
         20    3.615E+01                                 F               0         Y-component position of node 7 (blade 1, node 6), m
         21    1.574E+02                                 F               0         Z-component position of node 7 (blade 1, node 6), m
         22    1.563E+01                                 F               0         X-component position of node 8 (blade 1, node 7), m
         23    3.994E+01                                 F               0         Y-component position of node 8 (blade 1, node 7), m
         24    1.582E+02                                 F               0         Z-component position of node 8 (blade 1, node 7), m
         25    1.578E+01                                 F               0         X-component position of node 9 (blade 1, node 8), m
         26    4.372E+01                                 F               0         Y-component position of node 9 (blade 1, node 8), m
         27    1.590E+02                                 F               0         Z-component position of node 9 (blade 1, node 8), m
         28    1.593E+01                                 F               0         X-component position of node 10 (blade 1, node 9), m
         29    4.751E+01                                 F               0         Y-component position of node 10 (blade 1, node 9), m
         30    1.598E+02                                 F               0         Z-component position of node 10 (blade 1, node 9), m
         31    1.607E+01                                 F               0         X-component position of node 11 (blade 1, node 10), m
         32    5.129E+01                                 F               0         Y-component position of node 11 (blade 1, node 10), m
         33    1.606E+02                                 F               0         Z-component position of node 11 (blade 1, node 10), m
         34    1.622E+01                                 F               0         X-component position of node 12 (blade 1, node 11), m
         35    5.508E+01                                 F               0         Y-component position of node 12 (blade 1, node 11), m
         36    1.614E+02                                 F               0         Z-component position of node 12 (blade 1, node 11), m
         37    1.637E+01                                 F               0         X-component position of node 13 (blade 1, node 12), m
         38    5.886E+01                                 F               0         Y-component position of node 13 (blade 1, node 12), m
         39    1.621E+02                                 F               0         Z-component position of node 13 (blade 1, node 12), m
         40    1.652E+01                                 F               0         X-component position of node 14 (blade 1, node 13), m
         41    6.265E+01                                 F               0         Y-component position of node 14 (blade 1, node 13), m
         42    1.629E+02                                 F               0         Z-component position of node 14 (blade 1, node 13), m
         43    1.666E+01                                 F               0         X-component position of node 15 (blade 1, node 14), m
         44    6.643E+01                                 F               0         Y-component position of node 15 (blade 1, node 14), m
         45    1.637E+02                                 F               0         Z-component position of node 15 (blade 1, node 14), m
         46    1.681E+01                                 F               0         X-component position of node 16 (blade 1, node 15), m
         47    7.022E+01                                 F               0         Y-component position of node 16 (blade 1, node 15), m
         48    1.645E+02                                 F               0         Z-component position of node 16 (blade 1, node 15), m
         49    1.696E+01                                 F               0         X-component position of node 17 (blade 1, node 16), m
         50    7.400E+01                                 F               0         Y-component position of node 17 (blade 1, node 16), m
         51    1.653E+02                                 F               0         Z-component position of node 17 (blade 1, node 16), m
         52    1.710E+01                                 F               0         X-component position of node 18 (blade 1, node 17), m
         53    7.778E+01                                 F               0         Y-component position of node 18 (blade 1, node 17), m
         54    1.661E+02                                 F               0         Z-component position of node 18 (blade 1, node 17), m
         55    1.725E+01                                 F               0         X-component position of node 19 (blade 1, node 18), m
         56    8.157E+01                                 F               0         Y-component position of node 19 (blade 1, node 18), m
         57    1.669E+02                                 F               0         Z-component position of node 19 (blade 1, node 18), m
         58    1.740E+01                                 F               0         X-component position of node 20 (blade 1, node 19), m
         59    8.535E+01                                 F               0         Y-component position of node 20 (blade 1, node 19), m
         60    1.676E+02                                 F               0         Z-component position of node 20 (blade 1, node 19), m
         61    1.755E+01                                 F               0         X-component position of node 21 (blade 1, node 20), m
         62    8.914E+01                                 F               0         Y-component position of node 21 (blade 1, node 20), m
         63    1.684E+02                                 F               0         Z-component position of node 21 (blade 1, node 20), m
         64    1.769E+01                                 F               0         X-component position of node 22 (blade 1, node 21), m
         65    9.292E+01                                 F               0         Y-component position of node 22 (blade 1, node 21), m
         66    1.692E+02                                 F               0         Z-component position of node 22 (blade 1, node 21), m
         67    1.784E+01                                 F               0         X-component position of node 23 (blade 1, node 22), m
         68    9.671E+01                                 F               0         Y-component position of node 23 (blade 1, node 22), m
         69    1.700E+02                                 F               0         Z-component position of node 23 (blade 1, node 22), m
         70    1.799E+01                                 F               0         X-component position of node 24 (blade 1, node 23), m
         71    1.005E+02                                 F               0         Y-component position of node 24 (blade 1, node 23), m
         72    1.708E+02                                 F               0         Z-component position of node 24 (blade 1, node 23), m
         73    1.813E+01                                 F               0         X-component position of node 25 (blade 1, node 24), m
         74    1.043E+02                                 F               0         Y-component position of node 25 (blade 1, node 24), m
         75    1.716E+02                                 F               0         Z-component position of node 25 (blade 1, node 24), m
         76    1.828E+01                                 F               0         X-component position of node 26 (blade 1, node 25), m
         77    1.081E+02                                 F               0         Y-component position of node 26 (blade 1, node 25), m
         78    1.723E+02                                 F               0         Z-component position of node 26 (blade 1, node 25), m
         79    1.843E+01                                 F               0         X-component position of node 27 (blade 1, node 26), m
         80    1.118E+02                                 F               0         Y-component position of node 27 (blade 1, node 26), m
         81    1.731E+02                                 F               0         Z-component position of node 27 (blade 1, node 26), m
         82    1.857E+01                                 F               0         X-component position of node 28 (blade 1, node 27), m
         83    1.156E+02                                 F               0         Y-component position of node 28 (blade 1, node 27), m
         84    1.739E+02                                 F               0         Z-component position of node 28 (blade 1, node 27), m
         85    1.870E+01                                 F               0         X-component position of node 29 (blade 1, node 28), m
         86    1.188E+02                                 F               0         Y-component position of node 29 (blade 1, node 28), m
         87    1.746E+02                                 F               0         Z-component position of node 29 (blade 1, node 28), m
         88    1.488E+01                                 F               0         X-component position of node 30 (blade 2, node 1), m
         89   -3.389E+00                                 F               0         Y-component position of node 30 (blade 2, node 1), m
         90    1.541E+02                                 F               0         Z-component position of node 30 (blade 2, node 1), m
         91    1.507E+01                                 F               0         X-component position of node 31 (blade 2, node 2), m
         92   -4.280E+00                                 F               0         Y-component position of node 31 (blade 2, node 2), m
         93    1.550E+02                                 F               0         Z-component position of node 31 (blade 2, node 2), m
         94    1.763E+01                                 F               0         X-component position of node 32 (blade 2, node 3), m
         95   -1.640E+01                                 F               0         Y-component position of node 32 (blade 2, node 3), m
         96    1.683E+02                                 F               0         Z-component position of node 32 (blade 2, node 3), m
         97    1.818E+01                                 F               0         X-component position of node 33 (blade 2, node 4), m
         98   -1.899E+01                                 F               0         Y-component position of node 33 (blade 2, node 4), m
         99    1.711E+02                                 F               0         Z-component position of node 33 (blade 2, node 4), m
        100    1.872E+01                                 F               0         X-component position of node 34 (blade 2, node 5), m
        101   -2.157E+01                                 F               0         Y-component position of node 34 (blade 2, node 5), m
        102    1.740E+02                                 F               0         Z-component position of node 34 (blade 2, node 5), m
        103    1.927E+01                                 F               0         X-component position of node 35 (blade 2, node 6), m
        104   -2.415E+01                                 F               0         Y-component position of node 35 (blade 2, node 6), m
        105    1.768E+02                                 F               0         Z-component position of node 35 (blade 2, node 6), m
        106    1.982E+01                                 F               0         X-component position of node 36 (blade 2, node 7), m
        107   -2.674E+01                                 F               0         Y-component position of node 36 (blade 2, node 7), m
        108    1.796E+02                                 F               0         Z-component position of node 36 (blade 2, node 7), m
        109    2.036E+01                                 F               0         X-component position of node 37 (blade 2, node 8), m
        110   -2.932E+01                                 F               0         Y-component position of node 37 (blade 2, node 8), m
        111    1.824E+02                                 F               0         Z-component position of node 37 (blade 2, node 8), m
        112    2.091E+01                                 F               0         X-component position of node 38 (blade 2, node 9), m
        113   -3.190E+01                                 F               0         Y-component position of node 38 (blade 2, node 9), m
        114    1.853E+02                                 F               0         Z-component position of node 38 (blade 2, node 9), m
        115    2.146E+01                                 F               0         X-component position of node 39 (blade 2, node 10), m
        116   -3.449E+01                                 F               0         Y-component position of node 39 (blade 2, node 10), m
        117    1.881E+02                                 F               0         Z-component position of node 39 (blade 2, node 10), m
        118    2.200E+01                                 F               0         X-component position of node 40 (blade 2, node 11), m
        119   -3.707E+01                                 F               0         Y-component position of node 40 (blade 2, node 11), m
        120    1.909E+02                                 F               0         Z-component position of node 40 (blade 2, node 11), m
        121    2.255E+01                                 F               0         X-component position of node 41 (blade 2, node 12), m
        122   -3.965E+01                                 F               0         Y-component position of node 41 (blade 2, node 12), m
        123    1.937E+02                                 F               0         Z-component position of node 41 (blade 2, node 12), m
        124    2.310E+01                                 F               0         X-component position of node 42 (blade 2, node 13), m
        125   -4.224E+01                                 F               0         Y-component position of node 42 (blade 2, node 13), m
        126    1.966E+02                                 F               0         Z-component position of node 42 (blade 2, node 13), m
        127    2.364E+01                                 F               0         X-component position of node 43 (blade 2, node 14), m
        128   -4.482E+01                                 F               0         Y-component position of node 43 (blade 2, node 14), m
        129    1.994E+02                                 F               0         Z-component position of node 43 (blade 2, node 14), m
        130    2.419E+01                                 F               0         X-component position of node 44 (blade 2, node 15), m
        131   -4.740E+01                                 F               0         Y-component position of node 44 (blade 2, node 15), m
        132    2.022E+02                                 F               0         Z-component position of node 44 (blade 2, node 15), m
        133    2.474E+01                                 F               0         X-component position of node 45 (blade 2, node 16), m
        134   -4.998E+01                                 F               0         Y-component position of node 45 (blade 2, node 16), m
        135    2.050E+02                                 F               0         Z-component position of node 45 (blade 2, node 16), m
        136    2.528E+01                                 F               0         X-component position of node 46 (blade 2, node 17), m
        137   -5.257E+01                                 F               0         Y-component position of node 46 (blade 2, node 17), m
        138    2.079E+02                                 F               0         Z-component position of node 46 (blade 2, node 17), m
        139    2.583E+01                                 F               0         X-component position of node 47 (blade 2, node 18), m
        140   -5.515E+01                                 F               0         Y-component position of node 47 (blade 2, node 18), m
        141    2.107E+02                                 F               0         Z-component position of node 47 (blade 2, node 18), m
        142    2.638E+01                                 F               0         X-component position of node 48 (blade 2, node 19), m
        143   -5.773E+01                                 F               0         Y-component position of node 48 (blade 2, node 19), m
        144    2.135E+02                                 F               0         Z-component position of node 48 (blade 2, node 19), m
        145    2.692E+01                                 F               0         X-component position of node 49 (blade 2, node 20), m
        146   -6.032E+01                                 F               0         Y-component position of node 49 (blade 2, node 20), m
        147    2.164E+02                                 F               0         Z-component position of node 49 (blade 2, node 20), m
        148    2.747E+01                                 F               0         X-component position of node 50 (blade 2, node 21), m
        149   -6.290E+01                                 F               0         Y-component position of node 50 (blade 2, node 21), m
        150    2.192E+02                                 F               0         Z-component position of node 50 (blade 2, node 21), m
        151    2.802E+01                                 F               0         X-component position of node 51 (blade 2, node 22), m
        152   -6.548E+01                                 F               0         Y-component position of node 51 (blade 2, node 22), m
        153    2.220E+02                                 F               0         Z-component position of node 51 (blade 2, node 22), m
        154    2.856E+01                                 F               0         X-component position of node 52 (blade 2, node 23), m
        155   -6.807E+01                                 F               0         Y-component position of node 52 (blade 2, node 23), m
        156    2.248E+02                                 F               0         Z-component position of node 52 (blade 2, node 23), m
        157    2.911E+01                                 F               0         X-component position of node 53 (blade 2, node 24), m
        158   -7.065E+01                                 F               0         Y-component position of node 53 (blade 2, node 24), m
        159    2.277E+02                                 F               0         Z-component position of node 53 (blade 2, node 24), m
        160    2.966E+01                                 F               0         X-component position of node 54 (blade 2, node 25), m
        161   -7.323E+01                                 F               0         Y-component position of node 54 (blade 2, node 25), m
        162    2.305E+02                                 F               0         Z-component position of node 54 (blade 2, node 25), m
        163    3.020E+01                                 F               0         X-component position of node 55 (blade 2, node 26), m
        164   -7.582E+01                                 F               0         Y-component position of node 55 (blade 2, node 26), m
        165    2.333E+02                                 F               0         Z-component position of node 55 (blade 2, node 26), m
        166    3.075E+01                                 F               0         X-component position of node 56 (blade 2, node 27), m
        167   -7.840E+01                                 F               0         Y-component position of node 56 (blade 2, node 27), m
        168    2.361E+02                                 F               0         Z-component position of node 56 (blade 2, node 27), m
        169    3.121E+01                                 F               0         X-component position of node 57 (blade 2, node 28), m
        170   -8.059E+01                                 F               0         Y-component position of node 57 (blade 2, node 28), m
        171    2.385E+02                                 F               0         Z-component position of node 57 (blade 2, node 28), m
        172    1.310E+01                                 F               0         X-component position of node 58 (blade 3, node 1), m
        173   -1.409E+00                                 F               0         Y-component position of node 58 (blade 3, node 1), m
        174    1.448E+02                                 F               0         Z-component position of node 58 (blade 3, node 1), m
        175    1.286E+01                                 F               0         X-component position of node 59 (blade 3, node 2), m
        176   -1.824E+00                                 F               0         Y-component position of node 59 (blade 3, node 2), m
        177    1.436E+02                                 F               0         Z-component position of node 59 (blade 3, node 2), m
        178    9.605E+00                                 F               0         X-component position of node 60 (blade 3, node 3), m
        179   -7.463E+00                                 F               0         Y-component position of node 60 (blade 3, node 3), m
        180    1.267E+02                                 F               0         Z-component position of node 60 (blade 3, node 3), m
        181    8.912E+00                                 F               0         X-component position of node 61 (blade 3, node 4), m
        182   -8.664E+00                                 F               0         Y-component position of node 61 (blade 3, node 4), m
        183    1.230E+02                                 F               0         Z-component position of node 61 (blade 3, node 4), m
        184    8.218E+00                                 F               0         X-component position of node 62 (blade 3, node 5), m
        185   -9.865E+00                                 F               0         Y-component position of node 62 (blade 3, node 5), m
        186    1.194E+02                                 F               0         Z-component position of node 62 (blade 3, node 5), m
        187    7.525E+00                                 F               0         X-component position of node 63 (blade 3, node 6), m
        188   -1.107E+01                                 F               0         Y-component position of node 63 (blade 3, node 6), m
        189    1.158E+02                                 F               0         Z-component position of node 63 (blade 3, node 6), m
        190    6.831E+00                                 F               0         X-component position of node 64 (blade 3, node 7), m
        191   -1.227E+01                                 F               0         Y-component position of node 64 (blade 3, node 7), m
        192    1.122E+02                                 F               0         Z-component position of node 64 (blade 3, node 7), m
        193    6.137E+00                                 F               0         X-component position of node 65 (blade 3, node 8), m
        194   -1.347E+01                                 F               0         Y-component position of node 65 (blade 3, node 8), m
        195    1.086E+02                                 F               0         Z-component position of node 65 (blade 3, node 8), m
        196    5.444E+00                                 F               0         X-component position of node 66 (blade 3, node 9), m
        197   -1.467E+01                                 F               0         Y-component position of node 66 (blade 3, node 9), m
        198    1.050E+02                                 F               0         Z-component position of node 66 (blade 3, node 9), m
        199    4.750E+00                                 F               0         X-component position of node 67 (blade 3, node 10), m
        200   -1.587E+01                                 F               0         Y-component position of node 67 (blade 3, node 10), m
        201    1.014E+02                                 F               0         Z-component position of node 67 (blade 3, node 10), m
        202    4.056E+00                                 F               0         X-component position of node 68 (blade 3, node 11), m
        203   -1.707E+01                                 F               0         Y-component position of node 68 (blade 3, node 11), m
        204    9.777E+01                                 F               0         Z-component position of node 68 (blade 3, node 11), m
        205    3.363E+00                                 F               0         X-component position of node 69 (blade 3, node 12), m
        206   -1.828E+01                                 F               0         Y-component position of node 69 (blade 3, node 12), m
        207    9.416E+01                                 F               0         Z-component position of node 69 (blade 3, node 12), m
        208    2.669E+00                                 F               0         X-component position of node 70 (blade 3, node 13), m
        209   -1.948E+01                                 F               0         Y-component position of node 70 (blade 3, node 13), m
        210    9.055E+01                                 F               0         Z-component position of node 70 (blade 3, node 13), m
        211    1.975E+00                                 F               0         X-component position of node 71 (blade 3, node 14), m