
Linearized model: Predictions were generated on 06-Feb-2024 at 08:44:08 using OpenFAST, compiled as a 64-bit application using single precision at commit v3.5.1
 linked with  NWTC Subroutine Library; ElastoDyn; InflowWind; AeroDyn; ServoDyn; HydroDyn; MAP++ (<1.20.10>, <Oct-20-2023>)

Description from the FAST input file: CCT-9 Campign 4 model. Input files to be run with OpenFAST 3.5.0. GitHub branch from Lu Wang (https://github.com/luwang00/openfast/tree/dev) compiled on March 7, 2023.

Simulation information:
   Simulation time:                  2503.0000 s
   Rotor Speed:                         0.8856 rad/s
   Azimuth:                             5.8080 rad
   Wind Speed:                         10.0000 m/s
   Number of continuous states:        22
   Number of discrete states:           0
   Number of constraint states:         0
   Number of inputs:                 1890
   Number of outputs:                  19
   Jacobians included in this file?    No

Order of continuous states:
   Row/Column Operating Point                     Rotating Frame? Derivative Order Description
   ---------- ---------------                     --------------- ---------------- -----------
          1    1.247E+01                                 F               2         Platform horizontal surge translation DOF (internal DOF index = DOF_Sg), m
          2    2.451E-02                                 F               2         Platform horizontal sway translation DOF (internal DOF index = DOF_Sw), m
          3   -1.275E-01                                 F               2         Platform vertical heave translation DOF (internal DOF index = DOF_Hv), m
          4   -2.274E-03                                 F               2         Platform roll tilt rotation DOF (internal DOF index = DOF_R), rad
          5    7.853E-02                                 F               2         Platform pitch tilt rotation DOF (internal DOF index = DOF_P), rad
          6    1.404E-03                                 F               2         Platform yaw rotation DOF (internal DOF index = DOF_Y), rad
          7    6.070E-01                                 F               2         1st tower fore-aft bending mode DOF (internal DOF index = DOF_TFA1), m
          8   -1.678E-02                                 F               2         1st tower side-to-side bending mode DOF (internal DOF index = DOF_TSS1), m
          9    1.434E-03                                 F               2         2nd tower fore-aft bending mode DOF (internal DOF index = DOF_TFA2), m
         10   -2.745E-06                                 F               2         2nd tower side-to-side bending mode DOF (internal DOF index = DOF_TSS2), m
         11    4.237E+00                                 F               2         Variable speed generator DOF (internal DOF index = DOF_GeAz), rad
         12   -2.258E-05                                 F               2         First time derivative of Platform horizontal surge translation DOF (internal DOF index = DOF_Sg), m/s
         13    1.078E-04                                 F               2         First time derivative of Platform horizontal sway translation DOF (internal DOF index = DOF_Sw), m/s
         14    9.249E-04                                 F               2         First time derivative of Platform vertical heave translation DOF (internal DOF index = DOF_Hv), m/s
         15   -3.916E-04                                 F               2         First time derivative of Platform roll tilt rotation DOF (internal DOF index = DOF_R), rad/s
         16   -6.379E-06                                 F               2         First time derivative of Platform pitch tilt rotation DOF (internal DOF index = DOF_P), rad/s
         17    6.055E-05                                 F               2         First time derivative of Platform yaw rotation DOF (internal DOF index = DOF_Y), rad/s
         18    1.185E-03                                 F               2         First time derivative of 1st tower fore-aft bending mode DOF (internal DOF index = DOF_TFA1), m/s
         19   -4.372E-03                                 F               2         First time derivative of 1st tower side-to-side bending mode DOF (internal DOF index = DOF_TSS1), m/s
         20   -4.224E-06                                 F               2         First time derivative of 2nd tower fore-aft bending mode DOF (internal DOF index = DOF_TFA2), m/s
         21   -8.912E-07                                 F               2         First time derivative of 2nd tower side-to-side bending mode DOF (internal DOF index = DOF_TSS2), m/s
         22    8.856E-01                                 F               2         First time derivative of Variable speed generator DOF (internal DOF index = DOF_GeAz), rad/s

Order of continuous state derivatives:
   Row/Column Operating Point                     Rotating Frame? Derivative Order Description
   ---------- ---------------                     --------------- ---------------- -----------
          1   -2.258E-05                                 F               2         First time derivative of Platform horizontal surge translation DOF (internal DOF index = DOF_Sg), m/s
          2    1.078E-04                                 F               2         First time derivative of Platform horizontal sway translation DOF (internal DOF index = DOF_Sw), m/s
          3    9.249E-04                                 F               2         First time derivative of Platform vertical heave translation DOF (internal DOF index = DOF_Hv), m/s
          4   -3.916E-04                                 F               2         First time derivative of Platform roll tilt rotation DOF (internal DOF index = DOF_R), rad/s
          5   -6.379E-06                                 F               2         First time derivative of Platform pitch tilt rotation DOF (internal DOF index = DOF_P), rad/s
          6    6.055E-05                                 F               2         First time derivative of Platform yaw rotation DOF (internal DOF index = DOF_Y), rad/s
          7    1.185E-03                                 F               2         First time derivative of 1st tower fore-aft bending mode DOF (internal DOF index = DOF_TFA1), m/s
          8   -4.372E-03                                 F               2         First time derivative of 1st tower side-to-side bending mode DOF (internal DOF index = DOF_TSS1), m/s
          9   -4.224E-06                                 F               2         First time derivative of 2nd tower fore-aft bending mode DOF (internal DOF index = DOF_TFA2), m/s
         10   -8.912E-07                                 F               2         First time derivative of 2nd tower side-to-side bending mode DOF (internal DOF index = DOF_TSS2), m/s
         11    8.856E-01                                 F               2         First time derivative of Variable speed generator DOF (internal DOF index = DOF_GeAz), rad/s
         12   -3.406E-04                                 F               2         First time derivative of First time derivative of Platform horizontal surge translation DOF (internal DOF index = DOF_Sg), m/s/s
         13    5.231E-04                                 F               2         First time derivative of First time derivative of Platform horizontal sway translation DOF (internal DOF index = DOF_Sw), m/s/s
         14   -6.234E-04                                 F               2         First time derivative of First time derivative of Platform vertical heave translation DOF (internal DOF index = DOF_Hv), m/s/s
         15    4.518E-05                                 F               2         First time derivative of First time derivative of Platform roll tilt rotation DOF (internal DOF index = DOF_R), rad/s/s
         16   -1.773E-05                                 F               2         First time derivative of First time derivative of Platform pitch tilt rotation DOF (internal DOF index = DOF_P), rad/s/s
         17   -5.449E-05                                 F               2         First time derivative of First time derivative of Platform yaw rotation DOF (internal DOF index = DOF_Y), rad/s/s
         18    5.148E-03                                 F               2         First time derivative of First time derivative of 1st tower fore-aft bending mode DOF (internal DOF index = DOF_TFA1), m/s/s
         19    1.554E-03                                 F               2         First time derivative of First time derivative of 1st tower side-to-side bending mode DOF (internal DOF index = DOF_TSS1), m/s/s
         20    1.442E-06                                 F               2         First time derivative of First time derivative of 2nd tower fore-aft bending mode DOF (internal DOF index = DOF_TFA2), m/s/s
         21   -3.316E-07                                 F               2         First time derivative of First time derivative of 2nd tower side-to-side bending mode DOF (internal DOF index = DOF_TSS2), m/s/s
         22   -2.560E-04                                 F               2         First time derivative of First time derivative of Variable speed generator DOF (internal DOF index = DOF_GeAz), rad/s/s

Order of inputs:
     Column   Operating Point                     Rotating Frame? Derivative Order Description
   ---------- ---------------                     --------------- ---------------- -----------
          1    6.452E+01                                 F               0         Blade 1 X force, node 1, N
          2    5.282E+01                                 F               0         Blade 1 Y force, node 1, N
          3   -4.024E+01                                 F               0         Blade 1 Z force, node 1, N
          4    2.913E+02                                 F               0         Blade 1 X force, node 2, N
          5    1.055E+02                                 F               0         Blade 1 Y force, node 2, N
          6   -1.115E+02                                 F               0         Blade 1 Z force, node 2, N
          7    3.952E+02                                 F               0         Blade 1 X force, node 3, N
          8    5.472E+01                                 F               0         Blade 1 Y force, node 3, N
          9   -1.047E+02                                 F               0         Blade 1 Z force, node 3, N
         10    5.301E+02                                 F               0         Blade 1 X force, node 4, N
         11    1.627E+01                                 F               0         Blade 1 Y force, node 4, N
         12   -1.103E+02                                 F               0         Blade 1 Z force, node 4, N
         13    6.650E+02                                 F               0         Blade 1 X force, node 5, N
         14   -2.218E+01                                 F               0         Blade 1 Y force, node 5, N
         15   -1.159E+02                                 F               0         Blade 1 Z force, node 5, N
         16    7.998E+02                                 F               0         Blade 1 X force, node 6, N
         17   -6.063E+01                                 F               0         Blade 1 Y force, node 6, N
         18   -1.215E+02                                 F               0         Blade 1 Z force, node 6, N
         19    9.347E+02                                 F               0         Blade 1 X force, node 7, N
         20   -9.908E+01                                 F               0         Blade 1 Y force, node 7, N
         21   -1.271E+02                                 F               0         Blade 1 Z force, node 7, N
         22    1.070E+03                                 F               0         Blade 1 X force, node 8, N
         23   -1.375E+02                                 F               0         Blade 1 Y force, node 8, N
         24   -1.327E+02                                 F               0         Blade 1 Z force, node 8, N
         25    1.204E+03                                 F               0         Blade 1 X force, node 9, N
         26   -1.760E+02                                 F               0         Blade 1 Y force, node 9, N
         27   -1.383E+02                                 F               0         Blade 1 Z force, node 9, N
         28    1.339E+03                                 F               0         Blade 1 X force, node 10, N
         29   -2.144E+02                                 F               0         Blade 1 Y force, node 10, N
         30   -1.440E+02                                 F               0         Blade 1 Z force, node 10, N
         31    1.474E+03                                 F               0         Blade 1 X force, node 11, N
         32   -2.529E+02                                 F               0         Blade 1 Y force, node 11, N
         33   -1.496E+02                                 F               0         Blade 1 Z force, node 11, N
         34    1.609E+03                                 F               0         Blade 1 X force, node 12, N
         35   -2.913E+02                                 F               0         Blade 1 Y force, node 12, N
         36   -1.552E+02                                 F               0         Blade 1 Z force, node 12, N
         37    1.744E+03                                 F               0         Blade 1 X force, node 13, N
         38   -3.298E+02                                 F               0         Blade 1 Y force, node 13, N
         39   -1.608E+02                                 F               0         Blade 1 Z force, node 13, N
         40    1.879E+03                                 F               0         Blade 1 X force, node 14, N
         41   -3.682E+02                                 F               0         Blade 1 Y force, node 14, N
         42   -1.664E+02                                 F               0         Blade 1 Z force, node 14, N
         43    2.014E+03                                 F               0         Blade 1 X force, node 15, N
         44   -4.067E+02                                 F               0         Blade 1 Y force, node 15, N
         45   -1.720E+02                                 F               0         Blade 1 Z force, node 15, N
         46    2.148E+03                                 F               0         Blade 1 X force, node 16, N
         47   -4.451E+02                                 F               0         Blade 1 Y force, node 16, N
         48   -1.776E+02                                 F               0         Blade 1 Z force, node 16, N
         49    2.648E+03                                 F               0         Blade 1 X force, node 17, N
         50   -5.584E+02                                 F               0         Blade 1 Y force, node 17, N
         51   -2.138E+02                                 F               0         Blade 1 Z force, node 17, N
         52    2.028E+03                                 F               0         Blade 1 X force, node 18, N
         53   -4.118E+02                                 F               0         Blade 1 Y force, node 18, N
         54   -1.720E+02                                 F               0         Blade 1 Z force, node 18, N
         55    2.495E+03                                 F               0         Blade 1 X force, node 19, N
         56   -4.802E+02                                 F               0         Blade 1 Y force, node 19, N
         57   -2.257E+02                                 F               0         Blade 1 Z force, node 19, N
         58    2.133E+03                                 F               0         Blade 1 X force, node 20, N
         59   -3.897E+02                                 F               0         Blade 1 Y force, node 20, N
         60   -2.039E+02                                 F               0         Blade 1 Z force, node 20, N
         61    3.159E+03                                 F               0         Blade 1 X force, node 21, N
         62   -5.431E+02                                 F               0         Blade 1 Y force, node 21, N
         63   -3.199E+02                                 F               0         Blade 1 Z force, node 21, N
         64    2.796E+03                                 F               0         Blade 1 X force, node 22, N
         65   -4.521E+02                                 F               0         Blade 1 Y force, node 22, N
         66   -2.983E+02                                 F               0         Blade 1 Z force, node 22, N
         67    2.879E+03                                 F               0         Blade 1 X force, node 23, N
         68   -4.399E+02                                 F               0         Blade 1 Y force, node 23, N
         69   -3.206E+02                                 F               0         Blade 1 Z force, node 23, N
         70    3.013E+03                                 F               0         Blade 1 X force, node 24, N
         71   -4.353E+02                                 F               0         Blade 1 Y force, node 24, N
         72   -3.488E+02                                 F               0         Blade 1 Z force, node 24, N
         73    3.095E+03                                 F               0         Blade 1 X force, node 25, N
         74   -4.227E+02                                 F               0         Blade 1 Y force, node 25, N
         75   -3.711E+02                                 F               0         Blade 1 Z force, node 25, N
         76    3.194E+03                                 F               0         Blade 1 X force, node 26, N
         77   -4.127E+02                                 F               0         Blade 1 Y force, node 26, N
         78   -3.953E+02                                 F               0         Blade 1 Z force, node 26, N
         79    3.835E+03                                 F               0         Blade 1 X force, node 27, N
         80   -4.674E+02                                 F               0         Blade 1 Y force, node 27, N
         81   -4.896E+02                                 F               0         Blade 1 Z force, node 27, N
         82    2.849E+03                                 F               0         Blade 1 X force, node 28, N
         83   -3.278E+02                                 F               0         Blade 1 Y force, node 28, N
         84   -3.739E+02                                 F               0         Blade 1 Z force, node 28, N
         85    3.491E+03                                 F               0         Blade 1 X force, node 29, N
         86   -3.824E+02                                 F               0         Blade 1 Y force, node 29, N
         87   -4.682E+02                                 F               0         Blade 1 Z force, node 29, N
         88    2.974E+03                                 F               0         Blade 1 X force, node 30, N
         89   -3.104E+02                                 F               0         Blade 1 Y force, node 30, N
         90   -4.071E+02                                 F               0         Blade 1 Z force, node 30, N
         91    4.304E+03                                 F               0         Blade 1 X force, node 31, N
         92   -4.241E+02                                 F               0         Blade 1 Y force, node 31, N
         93   -6.023E+02                                 F               0         Blade 1 Z force, node 31, N
         94    3.787E+03                                 F               0         Blade 1 X force, node 32, N
         95   -3.519E+02                                 F               0         Blade 1 Y force, node 32, N
         96   -5.412E+02                                 F               0         Blade 1 Z force, node 32, N
         97    3.885E+03                                 F               0         Blade 1 X force, node 33, N
         98   -3.416E+02                                 F               0         Blade 1 Y force, node 33, N
         99   -5.654E+02                                 F               0         Blade 1 Z force, node 33, N
        100    3.984E+03                                 F               0         Blade 1 X force, node 34, N
        101   -3.314E+02                                 F               0         Blade 1 Y force, node 34, N
        102   -5.898E+02                                 F               0         Blade 1 Z force, node 34, N
        103    4.083E+03                                 F               0         Blade 1 X force, node 35, N
        104   -3.211E+02                                 F               0         Blade 1 Y force, node 35, N
        105   -6.142E+02                                 F               0         Blade 1 Z force, node 35, N
        106    4.181E+03                                 F               0         Blade 1 X force, node 36, N
        107   -3.108E+02                                 F               0         Blade 1 Y force, node 36, N
        108   -6.384E+02                                 F               0         Blade 1 Z force, node 36, N
        109    5.007E+03                                 F               0         Blade 1 X force, node 37, N
        110   -3.503E+02                                 F               0         Blade 1 Y force, node 37, N
        111   -7.761E+02                                 F               0         Blade 1 Z force, node 37, N
        112    3.650E+03                                 F               0         Blade 1 X force, node 38, N
        113   -2.405E+02                                 F               0         Blade 1 Y force, node 38, N
        114   -5.738E+02                                 F               0         Blade 1 Z force, node 38, N
        115    4.478E+03                                 F               0         Blade 1 X force, node 39, N
        116   -2.801E+02                                 F               0         Blade 1 Y force, node 39, N
        117   -7.116E+02                                 F               0         Blade 1 Z force, node 39, N
        118    3.821E+03                                 F               0         Blade 1 X force, node 40, N
        119   -2.268E+02                                 F               0         Blade 1 Y force, node 40, N
        120   -6.137E+02                                 F               0         Blade 1 Z force, node 40, N
        121    5.432E+03                                 F               0         Blade 1 X force, node 41, N
        122   -3.027E+02                                 F               0         Blade 1 Y force, node 41, N
        123   -8.828E+02                                 F               0         Blade 1 Z force, node 41, N
        124    4.774E+03                                 F               0         Blade 1 X force, node 42, N
        125   -2.493E+02                                 F               0         Blade 1 Y force, node 42, N
        126   -7.848E+02                                 F               0         Blade 1 Z force, node 42, N
        127    4.872E+03                                 F               0         Blade 1 X force, node 43, N
        128   -2.389E+02                                 F               0         Blade 1 Y force, node 43, N
        129   -8.090E+02                                 F               0         Blade 1 Z force, node 43, N
        130    4.996E+03                                 F               0         Blade 1 X force, node 44, N
        131   -2.297E+02                                 F               0         Blade 1 Y force, node 44, N
        132   -8.378E+02                                 F               0         Blade 1 Z force, node 44, N
        133    5.042E+03                                 F               0         Blade 1 X force, node 45, N
        134   -2.170E+02                                 F               0         Blade 1 Y force, node 45, N
        135   -8.532E+02                                 F               0         Blade 1 Z force, node 45, N
        136    5.167E+03                                 F               0         Blade 1 X force, node 46, N
        137   -2.078E+02                                 F               0         Blade 1 Y force, node 46, N
        138   -8.819E+02                                 F               0         Blade 1 Z force, node 46, N
        139    6.189E+03                                 F               0         Blade 1 X force, node 47, N
        140   -2.310E+02                                 F               0         Blade 1 Y force, node 47, N
        141   -1.066E+03                                 F               0         Blade 1 Z force, node 47, N
        142    4.439E+03                                 F               0         Blade 1 X force, node 48, N
        143   -1.536E+02                                 F               0         Blade 1 Y force, node 48, N
        144   -7.709E+02                                 F               0         Blade 1 Z force, node 48, N
        145    5.461E+03                                 F               0         Blade 1 X force, node 49, N
        146   -1.767E+02                                 F               0         Blade 1 Y force, node 49, N
        147   -9.548E+02                                 F               0         Blade 1 Z force, node 49, N
        148    4.674E+03                                 F               0         Blade 1 X force, node 50, N
        149   -1.411E+02                                 F               0         Blade 1 Y force, node 50, N
        150   -8.227E+02                                 F               0         Blade 1 Z force, node 50, N
        151    6.541E+03                                 F               0         Blade 1 X force, node 51, N
        152   -1.813E+02                                 F               0         Blade 1 Y force, node 51, N
        153   -1.160E+03                                 F               0         Blade 1 Z force, node 51, N
        154    5.756E+03                                 F               0         Blade 1 X force, node 52, N
        155   -1.457E+02                                 F               0         Blade 1 Y force, node 52, N
        156   -1.028E+03                                 F               0         Blade 1 Z force, node 52, N
        157    5.856E+03                                 F               0         Blade 1 X force, node 53, N
        158   -1.355E+02                                 F               0         Blade 1 Y force, node 53, N
        159   -1.052E+03                                 F               0         Blade 1 Z force, node 53, N
        160    6.021E+03                                 F               0         Blade 1 X force, node 54, N
        161   -1.265E+02                                 F               0         Blade 1 Y force, node 54, N
        162   -1.089E+03                                 F               0         Blade 1 Z force, node 54, N
        163    5.988E+03                                 F               0         Blade 1 X force, node 55, N
        164   -1.136E+02                                 F               0         Blade 1 Y force, node 55, N
        165   -1.089E+03                                 F               0         Blade 1 Z force, node 55, N
        166    6.153E+03                                 F               0         Blade 1 X force, node 56, N
        167   -1.046E+02                                 F               0         Blade 1 Y force, node 56, N
        168   -1.126E+03                                 F               0         Blade 1 Z force, node 56, N
        169    7.383E+03                                 F               0         Blade 1 X force, node 57, N
        170   -1.104E+02                                 F               0         Blade 1 Y force, node 57, N
        171   -1.359E+03                                 F               0         Blade 1 Z force, node 57, N
        172    5.219E+03                                 F               0         Blade 1 X force, node 58, N
        173   -6.789E+01                                 F               0         Blade 1 Y force, node 58, N
        174   -9.658E+02                                 F               0         Blade 1 Z force, node 58, N
        175    6.450E+03                                 F               0         Blade 1 X force, node 59, N
        176   -7.369E+01                                 F               0         Blade 1 Y force, node 59, N
        177   -1.199E+03                                 F               0         Blade 1 Z force, node 59, N
        178    5.546E+03                                 F               0         Blade 1 X force, node 60, N
        179   -5.464E+01                                 F               0         Blade 1 Y force, node 60, N
        180   -1.036E+03                                 F               0         Blade 1 Z force, node 60, N
        181    7.650E+03                                 F               0         Blade 1 X force, node 61, N
        182   -6.176E+01                                 F               0         Blade 1 Y force, node 61, N
        183   -1.436E+03                                 F               0         Blade 1 Z force, node 61, N
        184    6.744E+03                                 F               0         Blade 1 X force, node 62, N