
Linearized model: Predictions were generated on 06-Feb-2024 at 08:44:08 using OpenFAST, compiled as a 64-bit application using single precision at commit v3.5.1
 linked with  NWTC Subroutine Library; ElastoDyn; InflowWind; AeroDyn; ServoDyn; HydroDyn; MAP++ (<1.20.10>, <Oct-20-2023>)

Description from the FAST input file: CCT-9 Campign 4 model. Input files to be run with OpenFAST 3.5.0. GitHub branch from Lu Wang (https://github.com/luwang00/openfast/tree/dev) compiled on March 7, 2023.

Simulation information:
   Simulation time:                  2506.7750 s
   Rotor Speed:                         0.8851 rad/s
   Azimuth:                             2.8666 rad
   Wind Speed:                         10.0000 m/s
   Number of continuous states:         0
   Number of discrete states:           0
   Number of constraint states:         0
   Number of inputs:                 1746
   Number of outputs:                   4
   Jacobians included in this file?    No

Order of inputs:
     Column   Operating Point                     Rotating Frame? Derivative Order Description
   ---------- ---------------                     --------------- ---------------- -----------
          1    1.391E+01                                 F               0         Tower X translation displacement, node 1, m
          2    8.577E-02                                 F               0         Tower Y translation displacement, node 1, m
          3   -1.843E-01                                 F               0         Tower Z translation displacement, node 1, m
          4    1.488E+01                                 F               0         Tower X translation displacement, node 2, m
          5    1.259E-01                                 F               0         Tower Y translation displacement, node 2, m
          6   -2.230E-01                                 F               0         Tower Z translation displacement, node 2, m
          7    1.588E+01                                 F               0         Tower X translation displacement, node 3, m
          8    1.666E-01                                 F               0         Tower Y translation displacement, node 3, m
          9   -2.632E-01                                 F               0         Tower Z translation displacement, node 3, m
         10    1.689E+01                                 F               0         Tower X translation displacement, node 4, m
         11    2.078E-01                                 F               0         Tower Y translation displacement, node 4, m
         12   -3.047E-01                                 F               0         Tower Z translation displacement, node 4, m
         13    1.791E+01                                 F               0         Tower X translation displacement, node 5, m
         14    2.494E-01                                 F               0         Tower Y translation displacement, node 5, m
         15   -3.472E-01                                 F               0         Tower Z translation displacement, node 5, m
         16    1.895E+01                                 F               0         Tower X translation displacement, node 6, m
         17    2.915E-01                                 F               0         Tower Y translation displacement, node 6, m
         18   -3.906E-01                                 F               0         Tower Z translation displacement, node 6, m
         19    1.999E+01                                 F               0         Tower X translation displacement, node 7, m
         20    3.337E-01                                 F               0         Tower Y translation displacement, node 7, m
         21   -4.345E-01                                 F               0         Tower Z translation displacement, node 7, m
         22    2.103E+01                                 F               0         Tower X translation displacement, node 8, m
         23    3.763E-01                                 F               0         Tower Y translation displacement, node 8, m
         24   -4.790E-01                                 F               0         Tower Z translation displacement, node 8, m
         25    2.208E+01                                 F               0         Tower X translation displacement, node 9, m
         26    4.190E-01                                 F               0         Tower Y translation displacement, node 9, m
         27   -5.238E-01                                 F               0         Tower Z translation displacement, node 9, m
         28    2.314E+01                                 F               0         Tower X translation displacement, node 10, m
         29    4.618E-01                                 F               0         Tower Y translation displacement, node 10, m
         30   -5.688E-01                                 F               0         Tower Z translation displacement, node 10, m
         31    2.419E+01                                 F               0         Tower X translation displacement, node 11, m
         32    5.047E-01                                 F               0         Tower Y translation displacement, node 11, m
         33   -6.139E-01                                 F               0         Tower Z translation displacement, node 11, m
         34    9.969E-01,  1.125E-03, -7.831E-02         F               0         Tower X orientation angle, node 1, rad
         35   -1.374E-03,  1.000E+00, -3.126E-03         F               0         Tower Y orientation angle, node 1, rad
         36    7.830E-02,  3.224E-03,  9.969E-01         F               0         Tower Z orientation angle, node 1, rad
         37    9.968E-01,  1.120E-03, -7.984E-02         F               0         Tower X orientation angle, node 2, rad
         38   -1.378E-03,  1.000E+00, -3.172E-03         F               0         Tower Y orientation angle, node 2, rad
         39    7.984E-02,  3.272E-03,  9.968E-01         F               0         Tower Z orientation angle, node 2, rad
         40    9.967E-01,  1.116E-03, -8.118E-02         F               0         Tower X orientation angle, node 3, rad
         41   -1.381E-03,  1.000E+00, -3.214E-03         F               0         Tower Y orientation angle, node 3, rad
         42    8.118E-02,  3.315E-03,  9.967E-01         F               0         Tower Z orientation angle, node 3, rad
         43    9.966E-01,  1.112E-03, -8.231E-02         F               0         Tower X orientation angle, node 4, rad
         44   -1.384E-03,  1.000E+00, -3.250E-03         F               0         Tower Y orientation angle, node 4, rad
         45    8.230E-02,  3.353E-03,  9.966E-01         F               0         Tower Z orientation angle, node 4, rad
         46    9.965E-01,  1.109E-03, -8.322E-02         F               0         Tower X orientation angle, node 5, rad
         47   -1.387E-03,  1.000E+00, -3.281E-03         F               0         Tower Y orientation angle, node 5, rad
         48    8.322E-02,  3.385E-03,  9.965E-01         F               0         Tower Z orientation angle, node 5, rad
         49    9.965E-01,  1.106E-03, -8.394E-02         F               0         Tower X orientation angle, node 6, rad
         50   -1.389E-03,  1.000E+00, -3.307E-03         F               0         Tower Y orientation angle, node 6, rad
         51    8.394E-02,  3.412E-03,  9.965E-01         F               0         Tower Z orientation angle, node 6, rad
         52    9.964E-01,  1.105E-03, -8.448E-02         F               0         Tower X orientation angle, node 7, rad
         53   -1.391E-03,  1.000E+00, -3.328E-03         F               0         Tower Y orientation angle, node 7, rad
         54    8.447E-02,  3.434E-03,  9.964E-01         F               0         Tower Z orientation angle, node 7, rad
         55    9.964E-01,  1.103E-03, -8.486E-02         F               0         Tower X orientation angle, node 8, rad
         56   -1.392E-03,  1.000E+00, -3.344E-03         F               0         Tower Y orientation angle, node 8, rad
         57    8.486E-02,  3.450E-03,  9.964E-01         F               0         Tower Z orientation angle, node 8, rad
         58    9.964E-01,  1.102E-03, -8.512E-02         F               0         Tower X orientation angle, node 9, rad
         59   -1.393E-03,  1.000E+00, -3.356E-03         F               0         Tower Y orientation angle, node 9, rad
         60    8.511E-02,  3.463E-03,  9.964E-01         F               0         Tower Z orientation angle, node 9, rad
         61    9.964E-01,  1.102E-03, -8.527E-02         F               0         Tower X orientation angle, node 10, rad
         62   -1.394E-03,  1.000E+00, -3.364E-03         F               0         Tower Y orientation angle, node 10, rad
         63    8.527E-02,  3.471E-03,  9.964E-01         F               0         Tower Z orientation angle, node 10, rad
         64    9.964E-01,  1.101E-03, -8.535E-02         F               0         Tower X orientation angle, node 11, rad
         65   -1.394E-03,  1.000E+00, -3.368E-03         F               0         Tower Y orientation angle, node 11, rad
         66    8.534E-02,  3.475E-03,  9.963E-01         F               0         Tower Z orientation angle, node 11, rad
         67    7.230E-04                                 F               0         Tower X translation velocity, node 1, m/s
         68    2.939E-04                                 F               0         Tower Y translation velocity, node 1, m/s
         69   -1.184E-03                                 F               0         Tower Z translation velocity, node 1, m/s
         70    9.747E-04                                 F               0         Tower X translation velocity, node 2, m/s
         71    3.561E-04                                 F               0         Tower Y translation velocity, node 2, m/s
         72   -1.205E-03                                 F               0         Tower Z translation velocity, node 2, m/s
         73    1.170E-03                                 F               0         Tower X translation velocity, node 3, m/s
         74    3.821E-04                                 F               0         Tower Y translation velocity, node 3, m/s
         75   -1.220E-03                                 F               0         Tower Z translation velocity, node 3, m/s
         76    1.320E-03                                 F               0         Tower X translation velocity, node 4, m/s
         77    3.793E-04                                 F               0         Tower Y translation velocity, node 4, m/s
         78   -1.233E-03                                 F               0         Tower Z translation velocity, node 4, m/s
         79    1.429E-03                                 F               0         Tower X translation velocity, node 5, m/s
         80    3.517E-04                                 F               0         Tower Y translation velocity, node 5, m/s
         81   -1.242E-03                                 F               0         Tower Z translation velocity, node 5, m/s
         82    1.502E-03                                 F               0         Tower X translation velocity, node 6, m/s
         83    3.031E-04                                 F               0         Tower Y translation velocity, node 6, m/s
         84   -1.248E-03                                 F               0         Tower Z translation velocity, node 6, m/s
         85    1.545E-03                                 F               0         Tower X translation velocity, node 7, m/s
         86    2.383E-04                                 F               0         Tower Y translation velocity, node 7, m/s
         87   -1.251E-03                                 F               0         Tower Z translation velocity, node 7, m/s
         88    1.561E-03                                 F               0         Tower X translation velocity, node 8, m/s
         89    1.593E-04                                 F               0         Tower Y translation velocity, node 8, m/s
         90   -1.252E-03                                 F               0         Tower Z translation velocity, node 8, m/s
         91    1.556E-03                                 F               0         Tower X translation velocity, node 9, m/s
         92    6.952E-05                                 F               0         Tower Y translation velocity, node 9, m/s
         93   -1.251E-03                                 F               0         Tower Z translation velocity, node 9, m/s
         94    1.536E-03                                 F               0         Tower X translation velocity, node 10, m/s
         95   -2.780E-05                                 F               0         Tower Y translation velocity, node 10, m/s
         96   -1.249E-03                                 F               0         Tower Z translation velocity, node 10, m/s
         97    1.506E-03                                 F               0         Tower X translation velocity, node 11, m/s
         98   -1.297E-04                                 F               0         Tower Y translation velocity, node 11, m/s
         99   -1.246E-03                                 F               0         Tower Z translation velocity, node 11, m/s
        100    2.490E+01                                 F               0         Hub X translation displacement, node 1, m
        101    5.201E-01                                 F               0         Hub Y translation displacement, node 1, m
        102    2.792E-01                                 F               0         Hub Z translation displacement, node 1, m
        103    9.820E-01,  7.322E-04, -1.890E-01         F               0         Hub X orientation angle, node 1, rad
        104    5.266E-02, -9.615E-01,  2.698E-01         F               0         Hub Y orientation angle, node 1, rad
        105   -1.815E-01, -2.749E-01, -9.442E-01         F               0         Hub Z orientation angle, node 1, rad
        106    8.692E-01                                 F               0         Hub X rotation velocity, node 1, rad/s
        107    6.450E-04                                 F               0         Hub Y rotation velocity, node 1, rad/s
        108   -1.674E-01                                 F               0         Hub Z rotation velocity, node 1, rad/s
        109    9.800E-01,  2.925E-02, -1.969E-01         F               0         Blade root 1 X orientation angle, node 1, rad
        110    8.177E-02, -9.610E-01,  2.641E-01         F               0         Blade root 1 Y orientation angle, node 1, rad
        111   -1.815E-01, -2.749E-01, -9.442E-01         F               0         Blade root 1 Z orientation angle, node 1, rad
        112    9.870E-01, -6.466E-03, -1.607E-01         F               0         Blade root 2 X orientation angle, node 1, rad
        113   -1.543E-01,  2.425E-01, -9.578E-01         F               0         Blade root 2 Y orientation angle, node 1, rad
        114    4.517E-02,  9.701E-01,  2.384E-01         F               0         Blade root 2 Z orientation angle, node 1, rad
        115    9.777E-01, -2.059E-02, -2.092E-01         F               0         Blade root 3 X orientation angle, node 1, rad
        116    1.600E-01,  7.185E-01,  6.768E-01         F               0         Blade root 3 Y orientation angle, node 1, rad
        117    1.364E-01, -6.952E-01,  7.058E-01         F               0         Blade root 3 Z orientation angle, node 1, rad
        118    2.331E+01                                 F               0         Blade 1 X translation displacement, node 1, m
        119   -1.003E+00                                 F               0         Blade 1 Y translation displacement, node 1, m
        120   -1.046E+01                                 F               0         Blade 1 Z translation displacement, node 1, m
        121    2.293E+01                                 F               0         Blade 1 X translation displacement, node 2, m
        122   -1.370E+00                                 F               0         Blade 1 Y translation displacement, node 2, m
        123   -1.305E+01                                 F               0         Blade 1 Z translation displacement, node 2, m
        124    1.774E+01                                 F               0         Blade 1 X translation displacement, node 3, m
        125   -6.361E+00                                 F               0         Blade 1 Y translation displacement, node 3, m
        126   -4.824E+01                                 F               0         Blade 1 Z translation displacement, node 3, m
        127    1.663E+01                                 F               0         Blade 1 X translation displacement, node 4, m
        128   -7.424E+00                                 F               0         Blade 1 Y translation displacement, node 4, m
        129   -5.574E+01                                 F               0         Blade 1 Z translation displacement, node 4, m
        130    1.553E+01                                 F               0         Blade 1 X translation displacement, node 5, m
        131   -8.488E+00                                 F               0         Blade 1 Y translation displacement, node 5, m
        132   -6.324E+01                                 F               0         Blade 1 Z translation displacement, node 5, m
        133    1.442E+01                                 F               0         Blade 1 X translation displacement, node 6, m
        134   -9.551E+00                                 F               0         Blade 1 Y translation displacement, node 6, m
        135   -7.074E+01                                 F               0         Blade 1 Z translation displacement, node 6, m
        136    1.331E+01                                 F               0         Blade 1 X translation displacement, node 7, m
        137   -1.061E+01                                 F               0         Blade 1 Y translation displacement, node 7, m
        138   -7.823E+01                                 F               0         Blade 1 Z translation displacement, node 7, m
        139    1.221E+01                                 F               0         Blade 1 X translation displacement, node 8, m
        140   -1.168E+01                                 F               0         Blade 1 Y translation displacement, node 8, m
        141   -8.573E+01                                 F               0         Blade 1 Z translation displacement, node 8, m
        142    1.110E+01                                 F               0         Blade 1 X translation displacement, node 9, m
        143   -1.274E+01                                 F               0         Blade 1 Y translation displacement, node 9, m
        144   -9.323E+01                                 F               0         Blade 1 Z translation displacement, node 9, m
        145    9.994E+00                                 F               0         Blade 1 X translation displacement, node 10, m
        146   -1.380E+01                                 F               0         Blade 1 Y translation displacement, node 10, m
        147   -1.007E+02                                 F               0         Blade 1 Z translation displacement, node 10, m
        148    8.888E+00                                 F               0         Blade 1 X translation displacement, node 11, m
        149   -1.487E+01                                 F               0         Blade 1 Y translation displacement, node 11, m
        150   -1.082E+02                                 F               0         Blade 1 Z translation displacement, node 11, m
        151    7.781E+00                                 F               0         Blade 1 X translation displacement, node 12, m
        152   -1.593E+01                                 F               0         Blade 1 Y translation displacement, node 12, m
        153   -1.157E+02                                 F               0         Blade 1 Z translation displacement, node 12, m
        154    6.675E+00                                 F               0         Blade 1 X translation displacement, node 13, m
        155   -1.699E+01                                 F               0         Blade 1 Y translation displacement, node 13, m
        156   -1.232E+02                                 F               0         Blade 1 Z translation displacement, node 13, m
        157    5.568E+00                                 F               0         Blade 1 X translation displacement, node 14, m
        158   -1.806E+01                                 F               0         Blade 1 Y translation displacement, node 14, m
        159   -1.307E+02                                 F               0         Blade 1 Z translation displacement, node 14, m
        160    4.462E+00                                 F               0         Blade 1 X translation displacement, node 15, m
        161   -1.912E+01                                 F               0         Blade 1 Y translation displacement, node 15, m
        162   -1.382E+02                                 F               0         Blade 1 Z translation displacement, node 15, m
        163    3.355E+00                                 F               0         Blade 1 X translation displacement, node 16, m
        164   -2.018E+01                                 F               0         Blade 1 Y translation displacement, node 16, m
        165   -1.457E+02                                 F               0         Blade 1 Z translation displacement, node 16, m
        166    2.249E+00                                 F               0         Blade 1 X translation displacement, node 17, m
        167   -2.125E+01                                 F               0         Blade 1 Y translation displacement, node 17, m
        168   -1.532E+02                                 F               0         Blade 1 Z translation displacement, node 17, m
        169    1.143E+00                                 F               0         Blade 1 X translation displacement, node 18, m
        170   -2.231E+01                                 F               0         Blade 1 Y translation displacement, node 18, m
        171   -1.607E+02                                 F               0         Blade 1 Z translation displacement, node 18, m
        172    3.604E-02                                 F               0         Blade 1 X translation displacement, node 19, m
        173   -2.337E+01                                 F               0         Blade 1 Y translation displacement, node 19, m
        174   -1.682E+02                                 F               0         Blade 1 Z translation displacement, node 19, m
        175   -1.070E+00                                 F               0         Blade 1 X translation displacement, node 20, m
        176   -2.444E+01                                 F               0         Blade 1 Y translation displacement, node 20, m
        177   -1.757E+02                                 F               0         Blade 1 Z translation displacement, node 20, m
        178   -2.177E+00                                 F               0         Blade 1 X translation displacement, node 21, m
        179   -2.550E+01                                 F               0         Blade 1 Y translation displacement, node 21, m
        180   -1.832E+02                                 F               0         Blade 1 Z translation displacement, node 21, m
        181   -3.283E+00                                 F               0         Blade 1 X translation displacement, node 22, m
        182   -2.657E+01                                 F               0         Blade 1 Y translation displacement, node 22, m
        183   -1.907E+02                                 F               0         Blade 1 Z translation displacement, node 22, m
        184   -4.390E+00                                 F               0         Blade 1 X translation displacement, node 23, m
        185   -2.763E+01                                 F               0         Blade 1 Y translation displacement, node 23, m
        186   -1.982E+02                                 F               0         Blade 1 Z translation displacement, node 23, m
        187   -5.496E+00                                 F               0         Blade 1 X translation displacement, node 24, m
        188   -2.869E+01                                 F               0         Blade 1 Y translation displacement, node 24, m
        189   -2.057E+02                                 F               0         Blade 1 Z translation displacement, node 24, m
        190   -6.602E+00                                 F               0         Blade 1 X translation displacement, node 25, m
        191   -2.975E+01                                 F               0         Blade 1 Y translation displacement, node 25, m
        192   -2.132E+02                                 F               0         Blade 1 Z translation displacement, node 25, m
        193   -7.709E+00                                 F               0         Blade 1 X translation displacement, node 26, m
        194   -3.082E+01                                 F               0         Blade 1 Y translation displacement, node 26, m
        195   -2.207E+02                                 F               0         Blade 1 Z translation displacement, node 26, m
        196   -8.815E+00                                 F               0         Blade 1 X translation displacement, node 27, m
        197   -3.188E+01                                 F               0         Blade 1 Y translation displacement, node 27, m
        198   -2.282E+02                                 F               0         Blade 1 Z translation displacement, node 27, m
        199   -9.753E+00                                 F               0         Blade 1 X translation displacement, node 28, m
        200   -3.278E+01                                 F               0         Blade 1 Y translation displacement, node 28, m
        201   -2.346E+02                                 F               0         Blade 1 Z translation displacement, node 28, m
        202    8.349E-01,  4.643E-01, -2.957E-01         F               0         Blade 1 X orientation angle, node 1, rad
        203    5.197E-01, -8.419E-01,  1.453E-01         F               0         Blade 1 Y orientation angle, node 1, rad
        204   -1.815E-01, -2.749E-01, -9.442E-01         F               0         Blade 1 Z orientation angle, node 1, rad
        205    8.349E-01,  4.643E-01, -2.957E-01         F               0         Blade 1 X orientation angle, node 2, rad
        206    5.197E-01, -8.419E-01,  1.453E-01         F               0         Blade 1 Y orientation angle, node 2, rad
        207   -1.815E-01, -2.749E-01, -9.442E-01         F               0         Blade 1 Z orientation angle, node 2, rad
        208    9.342E-01,  2.515E-01, -2.529E-01         F               0         Blade 1 X orientation angle, node 3, rad
        209    3.070E-01, -9.280E-01,  2.112E-01         F               0         Blade 1 Y orientation angle, node 3, rad
        210   -1.815E-01, -2.749E-01, -9.442E-01         F               0         Blade 1 Z orientation angle, node 3, rad
        211    9.464E-01,  2.121E-01, -2.437E-01         F               0         Blade 1 X orientation angle, node 4, rad
        212    2.673E-01, -9.378E-01,  2.217E-01         F               0         Blade 1 Y orientation angle, node 4, rad
        213   -1.815E-01, -2.749E-01, -9.442E-01         F               0         Blade 1 Z orientation angle, node 4, rad
        214    9.547E-01,  1.809E-01, -2.362E-01         F               0         Blade 1 X orientation angle, node 5, rad
        215    2.357E-01, -9.443E-01,  2.296E-01         F               0         Blade 1 Y orientation angle, node 5, rad
        216   -1.815E-01, -2.749E-01, -9.442E-01         F               0         Blade 1 Z orientation angle, node 5, rad
        217    9.606E-01,  1.558E-01, -2.301E-01         F               0         Blade 1 X orientation angle, node 6, rad
        218    2.103E-01, -9.488E-01,  2.358E-01         F               0         Blade 1 Y orientation angle, node 6, rad
        219   -1.815E-01, -2.749E-01, -9.442E-01         F               0         Blade 1 Z orientation angle, node 6, rad
        220    9.650E-01,  1.350E-01, -2.249E-01         F               0         Blade 1 X orientation angle, node 7, rad
        221    1.893E-01, -9.519E-01,  2.408E-01         F               0         Blade 1 Y orientation angle, node 7, rad
        222   -1.815E-01, -2.749E-01, -9.442E-01         F               0         Blade 1 Z orientation angle, node 7, rad
        223    9.683E-01,  1.177E-01, -2.205E-01         F               0         Blade 1 X orientation angle, node 8, rad
        224    1.718E-01, -9.542E-01,  2.448E-01         F               0         Blade 1 Y orientation angle, node 8, rad
        225   -1.815E-01, -2.749E-01, -9.442E-01         F               0         Blade 1 Z orientation angle, node 8, rad
        226    9.708E-01,  1.031E-01, -2.167E-01         F               0         Blade 1 X orientation angle, node 9, rad
        227    1.569E-01, -9.559E-01,  2.482E-01         F               0         Blade 1 Y orientation angle, node 9, rad