
Linearized model: Predictions were generated on 24-Jan-2024 at 11:24:37 using OpenFAST, compiled as a 64-bit application using single precision at commit v3.5.1
 linked with  NWTC Subroutine Library; ElastoDyn; InflowWind; AeroDyn; ServoDyn; HydroDyn; MAP++ (<1.20.10>, <Oct-20-2023>)

Description from the FAST input file: CCT-9 Campign 4 model. Input files to be run with OpenFAST 3.5.0. GitHub branch from Lu Wang (https://github.com/luwang00/openfast/tree/dev) compiled on March 7, 2023.

Simulation information:
   Simulation time:                   502.7250 s
   Rotor Speed:                         0.8942 rad/s
   Azimuth:                             3.9762 rad
   Wind Speed:                         10.0000 m/s
   Number of continuous states:         0
   Number of discrete states:           0
   Number of constraint states:         0
   Number of inputs:                 1746
   Number of outputs:                   4
   Jacobians included in this file?    No

Order of inputs:
     Column   Operating Point                     Rotating Frame? Derivative Order Description
   ---------- ---------------                     --------------- ---------------- -----------
          1    1.535E-01                                 F               0         Tower X translation displacement, node 1, m
          2   -1.355E+00                                 F               0         Tower Y translation displacement, node 1, m
          3   -4.807E-02                                 F               0         Tower Z translation displacement, node 1, m
          4    3.902E-01                                 F               0         Tower X translation displacement, node 2, m
          5   -1.889E+00                                 F               0         Tower Y translation displacement, node 2, m
          6   -6.192E-02                                 F               0         Tower Z translation displacement, node 2, m
          7    6.403E-01                                 F               0         Tower X translation displacement, node 3, m
          8   -2.429E+00                                 F               0         Tower Y translation displacement, node 3, m
          9   -7.624E-02                                 F               0         Tower Z translation displacement, node 3, m
         10    9.001E-01                                 F               0         Tower X translation displacement, node 4, m
         11   -2.973E+00                                 F               0         Tower Y translation displacement, node 4, m
         12   -9.095E-02                                 F               0         Tower Z translation displacement, node 4, m
         13    1.168E+00                                 F               0         Tower X translation displacement, node 5, m
         14   -3.520E+00                                 F               0         Tower Y translation displacement, node 5, m
         15   -1.060E-01                                 F               0         Tower Z translation displacement, node 5, m
         16    1.442E+00                                 F               0         Tower X translation displacement, node 6, m
         17   -4.070E+00                                 F               0         Tower Y translation displacement, node 6, m
         18   -1.213E-01                                 F               0         Tower Z translation displacement, node 6, m
         19    1.719E+00                                 F               0         Tower X translation displacement, node 7, m
         20   -4.623E+00                                 F               0         Tower Y translation displacement, node 7, m
         21   -1.368E-01                                 F               0         Tower Z translation displacement, node 7, m
         22    2.001E+00                                 F               0         Tower X translation displacement, node 8, m
         23   -5.177E+00                                 F               0         Tower Y translation displacement, node 8, m
         24   -1.524E-01                                 F               0         Tower Z translation displacement, node 8, m
         25    2.284E+00                                 F               0         Tower X translation displacement, node 9, m
         26   -5.733E+00                                 F               0         Tower Y translation displacement, node 9, m
         27   -1.682E-01                                 F               0         Tower Z translation displacement, node 9, m
         28    2.568E+00                                 F               0         Tower X translation displacement, node 10, m
         29   -6.290E+00                                 F               0         Tower Y translation displacement, node 10, m
         30   -1.840E-01                                 F               0         Tower Z translation displacement, node 10, m
         31    2.853E+00                                 F               0         Tower X translation displacement, node 11, m
         32   -6.848E+00                                 F               0         Tower Y translation displacement, node 11, m
         33   -1.999E-01                                 F               0         Tower Z translation displacement, node 11, m
         34    9.998E-01,  7.904E-03, -1.840E-02         F               0         Tower X orientation angle, node 1, rad
         35   -7.102E-03,  9.990E-01,  4.325E-02         F               0         Tower Y orientation angle, node 1, rad
         36    1.873E-02, -4.311E-02,  9.989E-01         F               0         Tower Z orientation angle, node 1, rad
         37    9.998E-01,  7.948E-03, -1.942E-02         F               0         Tower X orientation angle, node 2, rad
         38   -7.094E-03,  9.990E-01,  4.365E-02         F               0         Tower Y orientation angle, node 2, rad
         39    1.975E-02, -4.350E-02,  9.989E-01         F               0         Tower Z orientation angle, node 2, rad
         40    9.998E-01,  7.986E-03, -2.029E-02         F               0         Tower X orientation angle, node 3, rad
         41   -7.087E-03,  9.990E-01,  4.400E-02         F               0         Tower Y orientation angle, node 3, rad
         42    2.062E-02, -4.385E-02,  9.988E-01         F               0         Tower Z orientation angle, node 3, rad
         43    9.997E-01,  8.018E-03, -2.100E-02         F               0         Tower X orientation angle, node 4, rad
         44   -7.081E-03,  9.990E-01,  4.431E-02         F               0         Tower Y orientation angle, node 4, rad
         45    2.134E-02, -4.415E-02,  9.988E-01         F               0         Tower Z orientation angle, node 4, rad
         46    9.997E-01,  8.043E-03, -2.157E-02         F               0         Tower X orientation angle, node 5, rad
         47   -7.075E-03,  9.990E-01,  4.457E-02         F               0         Tower Y orientation angle, node 5, rad
         48    2.191E-02, -4.441E-02,  9.988E-01         F               0         Tower Z orientation angle, node 5, rad
         49    9.997E-01,  8.062E-03, -2.200E-02         F               0         Tower X orientation angle, node 6, rad
         50   -7.070E-03,  9.990E-01,  4.480E-02         F               0         Tower Y orientation angle, node 6, rad
         51    2.234E-02, -4.463E-02,  9.988E-01         F               0         Tower Z orientation angle, node 6, rad
         52    9.997E-01,  8.076E-03, -2.230E-02         F               0         Tower X orientation angle, node 7, rad
         53   -7.066E-03,  9.990E-01,  4.497E-02         F               0         Tower Y orientation angle, node 7, rad
         54    2.264E-02, -4.480E-02,  9.987E-01         F               0         Tower Z orientation angle, node 7, rad
         55    9.997E-01,  8.085E-03, -2.251E-02         F               0         Tower X orientation angle, node 8, rad
         56   -7.063E-03,  9.990E-01,  4.511E-02         F               0         Tower Y orientation angle, node 8, rad
         57    2.285E-02, -4.494E-02,  9.987E-01         F               0         Tower Z orientation angle, node 8, rad
         58    9.997E-01,  8.091E-03, -2.264E-02         F               0         Tower X orientation angle, node 9, rad
         59   -7.061E-03,  9.990E-01,  4.521E-02         F               0         Tower Y orientation angle, node 9, rad
         60    2.298E-02, -4.504E-02,  9.987E-01         F               0         Tower Z orientation angle, node 9, rad
         61    9.997E-01,  8.094E-03, -2.270E-02         F               0         Tower X orientation angle, node 10, rad
         62   -7.059E-03,  9.989E-01,  4.528E-02         F               0         Tower Y orientation angle, node 10, rad
         63    2.305E-02, -4.511E-02,  9.987E-01         F               0         Tower Z orientation angle, node 10, rad
         64    9.997E-01,  8.095E-03, -2.273E-02         F               0         Tower X orientation angle, node 11, rad
         65   -7.059E-03,  9.989E-01,  4.532E-02         F               0         Tower Y orientation angle, node 11, rad
         66    2.308E-02, -4.514E-02,  9.987E-01         F               0         Tower Z orientation angle, node 11, rad
         67    2.672E-06                                 F               0         Tower X translation velocity, node 1, m/s
         68    1.161E-06                                 F               0         Tower Y translation velocity, node 1, m/s
         69    0.000E+00                                 F               0         Tower Z translation velocity, node 1, m/s
         70    1.562E-06                                 F               0         Tower X translation velocity, node 2, m/s
         71    5.264E-05                                 F               0         Tower Y translation velocity, node 2, m/s
         72    2.258E-06                                 F               0         Tower Z translation velocity, node 2, m/s
         73   -7.702E-06                                 F               0         Tower X translation velocity, node 3, m/s
         74    2.347E-04                                 F               0         Tower Y translation velocity, node 3, m/s
         75    1.041E-05                                 F               0         Tower Z translation velocity, node 3, m/s
         76   -2.449E-05                                 F               0         Tower X translation velocity, node 4, m/s
         77    5.214E-04                                 F               0         Tower Y translation velocity, node 4, m/s
         78    2.340E-05                                 F               0         Tower Z translation velocity, node 4, m/s
         79   -4.882E-05                                 F               0         Tower X translation velocity, node 5, m/s
         80    8.999E-04                                 F               0         Tower Y translation velocity, node 5, m/s
         81    4.071E-05                                 F               0         Tower Z translation velocity, node 5, m/s
         82   -8.053E-05                                 F               0         Tower X translation velocity, node 6, m/s
         83    1.357E-03                                 F               0         Tower Y translation velocity, node 6, m/s
         84    6.182E-05                                 F               0         Tower Z translation velocity, node 6, m/s
         85   -1.187E-04                                 F               0         Tower X translation velocity, node 7, m/s
         86    1.877E-03                                 F               0         Tower Y translation velocity, node 7, m/s
         87    8.592E-05                                 F               0         Tower Z translation velocity, node 7, m/s
         88   -1.633E-04                                 F               0         Tower X translation velocity, node 8, m/s
         89    2.451E-03                                 F               0         Tower Y translation velocity, node 8, m/s
         90    1.128E-04                                 F               0         Tower Z translation velocity, node 8, m/s
         91   -2.133E-04                                 F               0         Tower X translation velocity, node 9, m/s
         92    3.069E-03                                 F               0         Tower Y translation velocity, node 9, m/s
         93    1.417E-04                                 F               0         Tower Z translation velocity, node 9, m/s
         94   -2.675E-04                                 F               0         Tower X translation velocity, node 10, m/s
         95    3.716E-03                                 F               0         Tower Y translation velocity, node 10, m/s
         96    1.722E-04                                 F               0         Tower Z translation velocity, node 10, m/s
         97   -3.246E-04                                 F               0         Tower X translation velocity, node 11, m/s
         98    4.382E-03                                 F               0         Tower Y translation velocity, node 11, m/s
         99    2.036E-04                                 F               0         Tower Z translation velocity, node 11, m/s
        100    3.038E+00                                 F               0         Hub X translation displacement, node 1, m
        101   -7.289E+00                                 F               0         Hub Y translation displacement, node 1, m
        102    3.555E-02                                 F               0         Hub Z translation displacement, node 1, m
        103    9.918E-01,  1.277E-02, -1.270E-01         F               0         Hub X orientation angle, node 1, rad
        104   -8.971E-02, -6.381E-01, -7.647E-01         F               0         Hub Y orientation angle, node 1, rad
        105   -9.081E-02,  7.699E-01, -6.317E-01         F               0         Hub Z orientation angle, node 1, rad
        106    8.868E-01                                 F               0         Hub X rotation velocity, node 1, rad/s
        107    1.141E-02                                 F               0         Hub Y rotation velocity, node 1, rad/s
        108   -1.136E-01                                 F               0         Hub Z rotation velocity, node 1, rad/s
        109    9.940E-01,  3.169E-02, -1.043E-01         F               0         Blade root 1 X orientation angle, node 1, rad
        110   -6.024E-02, -6.374E-01, -7.681E-01         F               0         Blade root 1 Y orientation angle, node 1, rad
        111   -9.081E-02,  7.699E-01, -6.317E-01         F               0         Blade root 1 Z orientation angle, node 1, rad
        112    9.924E-01, -1.648E-02, -1.221E-01         F               0         Blade root 2 X orientation angle, node 1, rad
        113   -4.348E-03,  9.857E-01, -1.684E-01         F               0         Blade root 2 Y orientation angle, node 1, rad
        114    1.231E-01,  1.677E-01,  9.781E-01         F               0         Blade root 2 Z orientation angle, node 1, rad
        115    9.877E-01,  2.308E-02, -1.545E-01         F               0         Blade root 3 X orientation angle, node 1, rad
        116    1.529E-01, -3.471E-01,  9.253E-01         F               0         Blade root 3 Y orientation angle, node 1, rad
        117   -3.229E-02, -9.375E-01, -3.464E-01         F               0         Blade root 3 Z orientation angle, node 1, rad
        118    1.956E+00                                 F               0         Blade 1 X translation displacement, node 1, m
        119   -3.025E+00                                 F               0         Blade 1 Y translation displacement, node 1, m
        120   -8.974E+00                                 F               0         Blade 1 Z translation displacement, node 1, m
        121    1.695E+00                                 F               0         Blade 1 X translation displacement, node 2, m
        122   -1.997E+00                                 F               0         Blade 1 Y translation displacement, node 2, m
        123   -1.114E+01                                 F               0         Blade 1 Z translation displacement, node 2, m
        124   -1.851E+00                                 F               0         Blade 1 X translation displacement, node 3, m
        125    1.198E+01                                 F               0         Blade 1 Y translation displacement, node 3, m
        126   -4.067E+01                                 F               0         Blade 1 Z translation displacement, node 3, m
        127   -2.606E+00                                 F               0         Blade 1 X translation displacement, node 4, m
        128    1.496E+01                                 F               0         Blade 1 Y translation displacement, node 4, m
        129   -4.695E+01                                 F               0         Blade 1 Z translation displacement, node 4, m
        130   -3.362E+00                                 F               0         Blade 1 X translation displacement, node 5, m
        131    1.793E+01                                 F               0         Blade 1 Y translation displacement, node 5, m
        132   -5.325E+01                                 F               0         Blade 1 Z translation displacement, node 5, m
        133   -4.117E+00                                 F               0         Blade 1 X translation displacement, node 6, m
        134    2.091E+01                                 F               0         Blade 1 Y translation displacement, node 6, m
        135   -5.953E+01                                 F               0         Blade 1 Z translation displacement, node 6, m
        136   -4.873E+00                                 F               0         Blade 1 X translation displacement, node 7, m
        137    2.389E+01                                 F               0         Blade 1 Y translation displacement, node 7, m
        138   -6.582E+01                                 F               0         Blade 1 Z translation displacement, node 7, m
        139   -5.629E+00                                 F               0         Blade 1 X translation displacement, node 8, m
        140    2.687E+01                                 F               0         Blade 1 Y translation displacement, node 8, m
        141   -7.212E+01                                 F               0         Blade 1 Z translation displacement, node 8, m
        142   -6.384E+00                                 F               0         Blade 1 X translation displacement, node 9, m
        143    2.984E+01                                 F               0         Blade 1 Y translation displacement, node 9, m
        144   -7.840E+01                                 F               0         Blade 1 Z translation displacement, node 9, m
        145   -7.139E+00                                 F               0         Blade 1 X translation displacement, node 10, m
        146    3.282E+01                                 F               0         Blade 1 Y translation displacement, node 10, m
        147   -8.469E+01                                 F               0         Blade 1 Z translation displacement, node 10, m
        148   -7.895E+00                                 F               0         Blade 1 X translation displacement, node 11, m
        149    3.580E+01                                 F               0         Blade 1 Y translation displacement, node 11, m
        150   -9.098E+01                                 F               0         Blade 1 Z translation displacement, node 11, m
        151   -8.650E+00                                 F               0         Blade 1 X translation displacement, node 12, m
        152    3.878E+01                                 F               0         Blade 1 Y translation displacement, node 12, m
        153   -9.727E+01                                 F               0         Blade 1 Z translation displacement, node 12, m
        154   -9.406E+00                                 F               0         Blade 1 X translation displacement, node 13, m
        155    4.175E+01                                 F               0         Blade 1 Y translation displacement, node 13, m
        156   -1.036E+02                                 F               0         Blade 1 Z translation displacement, node 13, m
        157   -1.016E+01                                 F               0         Blade 1 X translation displacement, node 14, m
        158    4.473E+01                                 F               0         Blade 1 Y translation displacement, node 14, m
        159   -1.099E+02                                 F               0         Blade 1 Z translation displacement, node 14, m
        160   -1.092E+01                                 F               0         Blade 1 X translation displacement, node 15, m
        161    4.771E+01                                 F               0         Blade 1 Y translation displacement, node 15, m
        162   -1.161E+02                                 F               0         Blade 1 Z translation displacement, node 15, m
        163   -1.167E+01                                 F               0         Blade 1 X translation displacement, node 16, m
        164    5.069E+01                                 F               0         Blade 1 Y translation displacement, node 16, m
        165   -1.224E+02                                 F               0         Blade 1 Z translation displacement, node 16, m
        166   -1.243E+01                                 F               0         Blade 1 X translation displacement, node 17, m
        167    5.366E+01                                 F               0         Blade 1 Y translation displacement, node 17, m
        168   -1.287E+02                                 F               0         Blade 1 Z translation displacement, node 17, m
        169   -1.318E+01                                 F               0         Blade 1 X translation displacement, node 18, m
        170    5.664E+01                                 F               0         Blade 1 Y translation displacement, node 18, m
        171   -1.350E+02                                 F               0         Blade 1 Z translation displacement, node 18, m
        172   -1.394E+01                                 F               0         Blade 1 X translation displacement, node 19, m
        173    5.962E+01                                 F               0         Blade 1 Y translation displacement, node 19, m
        174   -1.413E+02                                 F               0         Blade 1 Z translation displacement, node 19, m
        175   -1.469E+01                                 F               0         Blade 1 X translation displacement, node 20, m
        176    6.260E+01                                 F               0         Blade 1 Y translation displacement, node 20, m
        177   -1.476E+02                                 F               0         Blade 1 Z translation displacement, node 20, m
        178   -1.545E+01                                 F               0         Blade 1 X translation displacement, node 21, m
        179    6.557E+01                                 F               0         Blade 1 Y translation displacement, node 21, m
        180   -1.539E+02                                 F               0         Blade 1 Z translation displacement, node 21, m
        181   -1.621E+01                                 F               0         Blade 1 X translation displacement, node 22, m
        182    6.855E+01                                 F               0         Blade 1 Y translation displacement, node 22, m
        183   -1.602E+02                                 F               0         Blade 1 Z translation displacement, node 22, m
        184   -1.696E+01                                 F               0         Blade 1 X translation displacement, node 23, m
        185    7.153E+01                                 F               0         Blade 1 Y translation displacement, node 23, m
        186   -1.665E+02                                 F               0         Blade 1 Z translation displacement, node 23, m
        187   -1.772E+01                                 F               0         Blade 1 X translation displacement, node 24, m
        188    7.451E+01                                 F               0         Blade 1 Y translation displacement, node 24, m
        189   -1.728E+02                                 F               0         Blade 1 Z translation displacement, node 24, m
        190   -1.847E+01                                 F               0         Blade 1 X translation displacement, node 25, m
        191    7.748E+01                                 F               0         Blade 1 Y translation displacement, node 25, m
        192   -1.790E+02                                 F               0         Blade 1 Z translation displacement, node 25, m
        193   -1.923E+01                                 F               0         Blade 1 X translation displacement, node 26, m
        194    8.046E+01                                 F               0         Blade 1 Y translation displacement, node 26, m
        195   -1.853E+02                                 F               0         Blade 1 Z translation displacement, node 26, m
        196   -1.998E+01                                 F               0         Blade 1 X translation displacement, node 27, m
        197    8.344E+01                                 F               0         Blade 1 Y translation displacement, node 27, m
        198   -1.916E+02                                 F               0         Blade 1 Z translation displacement, node 27, m
        199   -2.062E+01                                 F               0         Blade 1 X translation displacement, node 28, m
        200    8.596E+01                                 F               0         Blade 1 Y translation displacement, node 28, m
        201   -1.970E+02                                 F               0         Blade 1 Z translation displacement, node 28, m
        202    9.121E-01,  3.189E-01,  2.575E-01         F               0         Blade 1 X orientation angle, node 1, rad
        203    3.997E-01, -5.528E-01, -7.312E-01         F               0         Blade 1 Y orientation angle, node 1, rad
        204   -9.081E-02,  7.699E-01, -6.317E-01         F               0         Blade 1 Z orientation angle, node 1, rad
        205    9.121E-01,  3.189E-01,  2.575E-01         F               0         Blade 1 X orientation angle, node 2, rad
        206    3.997E-01, -5.528E-01, -7.312E-01         F               0         Blade 1 Y orientation angle, node 2, rad
        207   -9.081E-02,  7.699E-01, -6.317E-01         F               0         Blade 1 Z orientation angle, node 2, rad
        208    9.809E-01,  1.788E-01,  7.686E-02         F               0         Blade 1 X orientation angle, node 3, rad
        209    1.721E-01, -6.127E-01, -7.714E-01         F               0         Blade 1 Y orientation angle, node 3, rad
        210   -9.081E-02,  7.699E-01, -6.317E-01         F               0         Blade 1 Z orientation angle, node 3, rad
        211    9.873E-01,  1.527E-01,  4.422E-02         F               0         Blade 1 X orientation angle, node 4, rad
        212    1.305E-01, -6.197E-01, -7.739E-01         F               0         Blade 1 Y orientation angle, node 4, rad
        213   -9.081E-02,  7.699E-01, -6.317E-01         F               0         Blade 1 Z orientation angle, node 4, rad
        214    9.911E-01,  1.321E-01,  1.854E-02         F               0         Blade 1 X orientation angle, node 5, rad
        215    9.773E-02, -6.244E-01, -7.750E-01         F               0         Blade 1 Y orientation angle, node 5, rad
        216   -9.081E-02,  7.699E-01, -6.317E-01         F               0         Blade 1 Z orientation angle, node 5, rad
        217    9.933E-01,  1.155E-01, -2.024E-03         F               0         Blade 1 X orientation angle, node 6, rad
        218    7.141E-02, -6.277E-01, -7.752E-01         F               0         Blade 1 Y orientation angle, node 6, rad
        219   -9.081E-02,  7.699E-01, -6.317E-01         F               0         Blade 1 Z orientation angle, node 6, rad
        220    9.946E-01,  1.018E-01, -1.893E-02         F               0         Blade 1 X orientation angle, node 7, rad
        221    4.972E-02, -6.301E-01, -7.750E-01         F               0         Blade 1 Y orientation angle, node 7, rad
        222   -9.081E-02,  7.699E-01, -6.317E-01         F               0         Blade 1 Z orientation angle, node 7, rad
        223    9.954E-01,  9.033E-02, -3.300E-02         F               0         Blade 1 X orientation angle, node 8, rad
        224    3.166E-02, -6.318E-01, -7.745E-01         F               0         Blade 1 Y orientation angle, node 8, rad
        225   -9.081E-02,  7.699E-01, -6.317E-01         F               0         Blade 1 Z orientation angle, node 8, rad
        226    9.957E-01,  8.061E-02, -4.489E-02         F               0         Blade 1 X orientation angle, node 9, rad
        227    1.637E-02, -6.331E-01, -7.739E-01         F               0         Blade 1 Y orientation angle, node 9, rad