
Linearized model: Predictions were generated on 24-Jan-2024 at 11:24:37 using OpenFAST, compiled as a 64-bit application using single precision at commit v3.5.1
 linked with  NWTC Subroutine Library; ElastoDyn; InflowWind; AeroDyn; ServoDyn; HydroDyn; MAP++ (<1.20.10>, <Oct-20-2023>)

Description from the FAST input file: CCT-9 Campign 4 model. Input files to be run with OpenFAST 3.5.0. GitHub branch from Lu Wang (https://github.com/luwang00/openfast/tree/dev) compiled on March 7, 2023.

Simulation information:
   Simulation time:                   501.7500 s
   Rotor Speed:                         0.8940 rad/s
   Azimuth:                             3.1045 rad
   Wind Speed:                         10.0000 m/s
   Number of continuous states:         0
   Number of discrete states:           0
   Number of constraint states:         0
   Number of inputs:                 1746
   Number of outputs:                   4
   Jacobians included in this file?    No

Order of inputs:
     Column   Operating Point                     Rotating Frame? Derivative Order Description
   ---------- ---------------                     --------------- ---------------- -----------
          1    1.535E-01                                 F               0         Tower X translation displacement, node 1, m
          2   -1.355E+00                                 F               0         Tower Y translation displacement, node 1, m
          3   -4.807E-02                                 F               0         Tower Z translation displacement, node 1, m
          4    3.902E-01                                 F               0         Tower X translation displacement, node 2, m
          5   -1.889E+00                                 F               0         Tower Y translation displacement, node 2, m
          6   -6.192E-02                                 F               0         Tower Z translation displacement, node 2, m
          7    6.403E-01                                 F               0         Tower X translation displacement, node 3, m
          8   -2.429E+00                                 F               0         Tower Y translation displacement, node 3, m
          9   -7.625E-02                                 F               0         Tower Z translation displacement, node 3, m
         10    9.002E-01                                 F               0         Tower X translation displacement, node 4, m
         11   -2.973E+00                                 F               0         Tower Y translation displacement, node 4, m
         12   -9.097E-02                                 F               0         Tower Z translation displacement, node 4, m
         13    1.168E+00                                 F               0         Tower X translation displacement, node 5, m
         14   -3.521E+00                                 F               0         Tower Y translation displacement, node 5, m
         15   -1.060E-01                                 F               0         Tower Z translation displacement, node 5, m
         16    1.442E+00                                 F               0         Tower X translation displacement, node 6, m
         17   -4.071E+00                                 F               0         Tower Y translation displacement, node 6, m
         18   -1.213E-01                                 F               0         Tower Z translation displacement, node 6, m
         19    1.720E+00                                 F               0         Tower X translation displacement, node 7, m
         20   -4.624E+00                                 F               0         Tower Y translation displacement, node 7, m
         21   -1.368E-01                                 F               0         Tower Z translation displacement, node 7, m
         22    2.001E+00                                 F               0         Tower X translation displacement, node 8, m
         23   -5.179E+00                                 F               0         Tower Y translation displacement, node 8, m
         24   -1.525E-01                                 F               0         Tower Z translation displacement, node 8, m
         25    2.284E+00                                 F               0         Tower X translation displacement, node 9, m
         26   -5.735E+00                                 F               0         Tower Y translation displacement, node 9, m
         27   -1.683E-01                                 F               0         Tower Z translation displacement, node 9, m
         28    2.569E+00                                 F               0         Tower X translation displacement, node 10, m
         29   -6.293E+00                                 F               0         Tower Y translation displacement, node 10, m
         30   -1.842E-01                                 F               0         Tower Z translation displacement, node 10, m
         31    2.854E+00                                 F               0         Tower X translation displacement, node 11, m
         32   -6.851E+00                                 F               0         Tower Y translation displacement, node 11, m
         33   -2.001E-01                                 F               0         Tower Z translation displacement, node 11, m
         34    9.998E-01,  7.901E-03, -1.840E-02         F               0         Tower X orientation angle, node 1, rad
         35   -7.099E-03,  9.990E-01,  4.325E-02         F               0         Tower Y orientation angle, node 1, rad
         36    1.873E-02, -4.311E-02,  9.989E-01         F               0         Tower Z orientation angle, node 1, rad
         37    9.998E-01,  7.945E-03, -1.942E-02         F               0         Tower X orientation angle, node 2, rad
         38   -7.091E-03,  9.990E-01,  4.365E-02         F               0         Tower Y orientation angle, node 2, rad
         39    1.975E-02, -4.351E-02,  9.989E-01         F               0         Tower Z orientation angle, node 2, rad
         40    9.998E-01,  7.983E-03, -2.029E-02         F               0         Tower X orientation angle, node 3, rad
         41   -7.084E-03,  9.990E-01,  4.401E-02         F               0         Tower Y orientation angle, node 3, rad
         42    2.062E-02, -4.386E-02,  9.988E-01         F               0         Tower Z orientation angle, node 3, rad
         43    9.997E-01,  8.015E-03, -2.101E-02         F               0         Tower X orientation angle, node 4, rad
         44   -7.077E-03,  9.990E-01,  4.433E-02         F               0         Tower Y orientation angle, node 4, rad
         45    2.134E-02, -4.417E-02,  9.988E-01         F               0         Tower Z orientation angle, node 4, rad
         46    9.997E-01,  8.040E-03, -2.158E-02         F               0         Tower X orientation angle, node 5, rad
         47   -7.072E-03,  9.990E-01,  4.460E-02         F               0         Tower Y orientation angle, node 5, rad
         48    2.191E-02, -4.444E-02,  9.988E-01         F               0         Tower Z orientation angle, node 5, rad
         49    9.997E-01,  8.060E-03, -2.201E-02         F               0         Tower X orientation angle, node 6, rad
         50   -7.067E-03,  9.990E-01,  4.483E-02         F               0         Tower Y orientation angle, node 6, rad
         51    2.235E-02, -4.466E-02,  9.988E-01         F               0         Tower Z orientation angle, node 6, rad
         52    9.997E-01,  8.073E-03, -2.231E-02         F               0         Tower X orientation angle, node 7, rad
         53   -7.063E-03,  9.990E-01,  4.501E-02         F               0         Tower Y orientation angle, node 7, rad
         54    2.265E-02, -4.484E-02,  9.987E-01         F               0         Tower Z orientation angle, node 7, rad
         55    9.997E-01,  8.083E-03, -2.252E-02         F               0         Tower X orientation angle, node 8, rad
         56   -7.059E-03,  9.990E-01,  4.515E-02         F               0         Tower Y orientation angle, node 8, rad
         57    2.286E-02, -4.498E-02,  9.987E-01         F               0         Tower Z orientation angle, node 8, rad
         58    9.997E-01,  8.088E-03, -2.264E-02         F               0         Tower X orientation angle, node 9, rad
         59   -7.057E-03,  9.990E-01,  4.525E-02         F               0         Tower Y orientation angle, node 9, rad
         60    2.299E-02, -4.508E-02,  9.987E-01         F               0         Tower Z orientation angle, node 9, rad
         61    9.997E-01,  8.092E-03, -2.271E-02         F               0         Tower X orientation angle, node 10, rad
         62   -7.056E-03,  9.989E-01,  4.532E-02         F               0         Tower Y orientation angle, node 10, rad
         63    2.306E-02, -4.515E-02,  9.987E-01         F               0         Tower Z orientation angle, node 10, rad
         64    9.997E-01,  8.093E-03, -2.274E-02         F               0         Tower X orientation angle, node 11, rad
         65   -7.055E-03,  9.989E-01,  4.536E-02         F               0         Tower Y orientation angle, node 11, rad
         66    2.309E-02, -4.519E-02,  9.987E-01         F               0         Tower Z orientation angle, node 11, rad
         67    1.775E-06                                 F               0         Tower X translation velocity, node 1, m/s
         68    7.713E-07                                 F               0         Tower Y translation velocity, node 1, m/s
         69    0.000E+00                                 F               0         Tower Z translation velocity, node 1, m/s
         70   -7.733E-06                                 F               0         Tower X translation velocity, node 2, m/s
         71    2.446E-05                                 F               0         Tower Y translation velocity, node 2, m/s
         72    1.215E-06                                 F               0         Tower Z translation velocity, node 2, m/s
         73   -4.524E-05                                 F               0         Tower X translation velocity, node 3, m/s
         74    1.079E-04                                 F               0         Tower Y translation velocity, node 3, m/s
         75    5.625E-06                                 F               0         Tower Z translation velocity, node 3, m/s
         76   -1.058E-04                                 F               0         Tower X translation velocity, node 4, m/s
         77    2.392E-04                                 F               0         Tower Y translation velocity, node 4, m/s
         78    1.269E-05                                 F               0         Tower Z translation velocity, node 4, m/s
         79   -1.872E-04                                 F               0         Tower X translation velocity, node 5, m/s
         80    4.127E-04                                 F               0         Tower Y translation velocity, node 5, m/s
         81    2.215E-05                                 F               0         Tower Z translation velocity, node 5, m/s
         82   -2.871E-04                                 F               0         Tower X translation velocity, node 6, m/s
         83    6.225E-04                                 F               0         Tower Y translation velocity, node 6, m/s
         84    3.373E-05                                 F               0         Tower Z translation velocity, node 6, m/s
         85   -4.019E-04                                 F               0         Tower X translation velocity, node 7, m/s
         86    8.607E-04                                 F               0         Tower Y translation velocity, node 7, m/s
         87    4.699E-05                                 F               0         Tower Z translation velocity, node 7, m/s
         88   -5.305E-04                                 F               0         Tower X translation velocity, node 8, m/s
         89    1.124E-03                                 F               0         Tower Y translation velocity, node 8, m/s
         90    6.178E-05                                 F               0         Tower Z translation velocity, node 8, m/s
         91   -6.700E-04                                 F               0         Tower X translation velocity, node 9, m/s
         92    1.408E-03                                 F               0         Tower Y translation velocity, node 9, m/s
         93    7.776E-05                                 F               0         Tower Z translation velocity, node 9, m/s
         94   -8.175E-04                                 F               0         Tower X translation velocity, node 10, m/s
         95    1.705E-03                                 F               0         Tower Y translation velocity, node 10, m/s
         96    9.460E-05                                 F               0         Tower Z translation velocity, node 10, m/s
         97   -9.701E-04                                 F               0         Tower X translation velocity, node 11, m/s
         98    2.011E-03                                 F               0         Tower Y translation velocity, node 11, m/s
         99    1.120E-04                                 F               0         Tower Z translation velocity, node 11, m/s
        100    3.038E+00                                 F               0         Hub X translation displacement, node 1, m
        101   -7.293E+00                                 F               0         Hub Y translation displacement, node 1, m
        102    3.546E-02                                 F               0         Hub Z translation displacement, node 1, m
        103    9.918E-01,  1.277E-02, -1.270E-01         F               0         Hub X orientation angle, node 1, rad
        104    1.178E-02, -9.999E-01, -8.557E-03         F               0         Hub Y orientation angle, node 1, rad
        105   -1.271E-01,  6.991E-03, -9.919E-01         F               0         Hub Z orientation angle, node 1, rad
        106    8.867E-01                                 F               0         Hub X rotation velocity, node 1, rad/s
        107    1.141E-02                                 F               0         Hub Y rotation velocity, node 1, rad/s
        108   -1.136E-01                                 F               0         Hub Z rotation velocity, node 1, rad/s
        109    9.910E-01,  4.243E-02, -1.267E-01         F               0         Blade root 1 X orientation angle, node 1, rad
        110    4.120E-02, -9.991E-01, -1.232E-02         F               0         Blade root 1 Y orientation angle, node 1, rad
        111   -1.271E-01,  6.991E-03, -9.919E-01         F               0         Blade root 1 Z orientation angle, node 1, rad
        112    9.948E-01, -2.245E-03, -1.016E-01         F               0         Blade root 2 X orientation angle, node 1, rad
        113   -8.649E-02,  5.062E-01, -8.581E-01         F               0         Blade root 2 Y orientation angle, node 1, rad
        114    5.335E-02,  8.624E-01,  5.033E-01         F               0         Blade root 2 Z orientation angle, node 1, rad
        115    9.883E-01, -1.886E-03, -1.526E-01         F               0         Blade root 3 X orientation angle, node 1, rad
        116    1.336E-01,  4.941E-01,  8.591E-01         F               0         Blade root 3 Y orientation angle, node 1, rad
        117    7.376E-02, -8.694E-01,  4.885E-01         F               0         Blade root 3 Z orientation angle, node 1, rad
        118    1.755E+00                                 F               0         Blade 1 X translation displacement, node 1, m
        119   -7.255E+00                                 F               0         Blade 1 Y translation displacement, node 1, m
        120   -1.097E+01                                 F               0         Blade 1 Z translation displacement, node 1, m
        121    1.446E+00                                 F               0         Blade 1 X translation displacement, node 2, m
        122   -7.245E+00                                 F               0         Blade 1 Y translation displacement, node 2, m
        123   -1.362E+01                                 F               0         Blade 1 Z translation displacement, node 2, m
        124   -2.759E+00                                 F               0         Blade 1 X translation displacement, node 3, m
        125   -7.118E+00                                 F               0         Blade 1 Y translation displacement, node 3, m
        126   -4.968E+01                                 F               0         Blade 1 Z translation displacement, node 3, m
        127   -3.655E+00                                 F               0         Blade 1 X translation displacement, node 4, m
        128   -7.091E+00                                 F               0         Blade 1 Y translation displacement, node 4, m
        129   -5.736E+01                                 F               0         Blade 1 Z translation displacement, node 4, m
        130   -4.551E+00                                 F               0         Blade 1 X translation displacement, node 5, m
        131   -7.064E+00                                 F               0         Blade 1 Y translation displacement, node 5, m
        132   -6.504E+01                                 F               0         Blade 1 Z translation displacement, node 5, m
        133   -5.446E+00                                 F               0         Blade 1 X translation displacement, node 6, m
        134   -7.037E+00                                 F               0         Blade 1 Y translation displacement, node 6, m
        135   -7.273E+01                                 F               0         Blade 1 Z translation displacement, node 6, m
        136   -6.342E+00                                 F               0         Blade 1 X translation displacement, node 7, m
        137   -7.010E+00                                 F               0         Blade 1 Y translation displacement, node 7, m
        138   -8.041E+01                                 F               0         Blade 1 Z translation displacement, node 7, m
        139   -7.238E+00                                 F               0         Blade 1 X translation displacement, node 8, m
        140   -6.983E+00                                 F               0         Blade 1 Y translation displacement, node 8, m
        141   -8.809E+01                                 F               0         Blade 1 Z translation displacement, node 8, m
        142   -8.134E+00                                 F               0         Blade 1 X translation displacement, node 9, m
        143   -6.956E+00                                 F               0         Blade 1 Y translation displacement, node 9, m
        144   -9.578E+01                                 F               0         Blade 1 Z translation displacement, node 9, m
        145   -9.030E+00                                 F               0         Blade 1 X translation displacement, node 10, m
        146   -6.929E+00                                 F               0         Blade 1 Y translation displacement, node 10, m
        147   -1.035E+02                                 F               0         Blade 1 Z translation displacement, node 10, m
        148   -9.926E+00                                 F               0         Blade 1 X translation displacement, node 11, m
        149   -6.902E+00                                 F               0         Blade 1 Y translation displacement, node 11, m
        150   -1.111E+02                                 F               0         Blade 1 Z translation displacement, node 11, m
        151   -1.082E+01                                 F               0         Blade 1 X translation displacement, node 12, m
        152   -6.875E+00                                 F               0         Blade 1 Y translation displacement, node 12, m
        153   -1.188E+02                                 F               0         Blade 1 Z translation displacement, node 12, m
        154   -1.172E+01                                 F               0         Blade 1 X translation displacement, node 13, m
        155   -6.848E+00                                 F               0         Blade 1 Y translation displacement, node 13, m
        156   -1.265E+02                                 F               0         Blade 1 Z translation displacement, node 13, m
        157   -1.261E+01                                 F               0         Blade 1 X translation displacement, node 14, m
        158   -6.821E+00                                 F               0         Blade 1 Y translation displacement, node 14, m
        159   -1.342E+02                                 F               0         Blade 1 Z translation displacement, node 14, m
        160   -1.351E+01                                 F               0         Blade 1 X translation displacement, node 15, m
        161   -6.794E+00                                 F               0         Blade 1 Y translation displacement, node 15, m
        162   -1.419E+02                                 F               0         Blade 1 Z translation displacement, node 15, m
        163   -1.441E+01                                 F               0         Blade 1 X translation displacement, node 16, m
        164   -6.767E+00                                 F               0         Blade 1 Y translation displacement, node 16, m
        165   -1.496E+02                                 F               0         Blade 1 Z translation displacement, node 16, m
        166   -1.530E+01                                 F               0         Blade 1 X translation displacement, node 17, m
        167   -6.740E+00                                 F               0         Blade 1 Y translation displacement, node 17, m
        168   -1.572E+02                                 F               0         Blade 1 Z translation displacement, node 17, m
        169   -1.620E+01                                 F               0         Blade 1 X translation displacement, node 18, m
        170   -6.713E+00                                 F               0         Blade 1 Y translation displacement, node 18, m
        171   -1.649E+02                                 F               0         Blade 1 Z translation displacement, node 18, m
        172   -1.709E+01                                 F               0         Blade 1 X translation displacement, node 19, m
        173   -6.686E+00                                 F               0         Blade 1 Y translation displacement, node 19, m
        174   -1.726E+02                                 F               0         Blade 1 Z translation displacement, node 19, m
        175   -1.799E+01                                 F               0         Blade 1 X translation displacement, node 20, m
        176   -6.659E+00                                 F               0         Blade 1 Y translation displacement, node 20, m
        177   -1.803E+02                                 F               0         Blade 1 Z translation displacement, node 20, m
        178   -1.888E+01                                 F               0         Blade 1 X translation displacement, node 21, m
        179   -6.632E+00                                 F               0         Blade 1 Y translation displacement, node 21, m
        180   -1.880E+02                                 F               0         Blade 1 Z translation displacement, node 21, m
        181   -1.978E+01                                 F               0         Blade 1 X translation displacement, node 22, m
        182   -6.605E+00                                 F               0         Blade 1 Y translation displacement, node 22, m
        183   -1.957E+02                                 F               0         Blade 1 Z translation displacement, node 22, m
        184   -2.068E+01                                 F               0         Blade 1 X translation displacement, node 23, m
        185   -6.578E+00                                 F               0         Blade 1 Y translation displacement, node 23, m
        186   -2.033E+02                                 F               0         Blade 1 Z translation displacement, node 23, m
        187   -2.157E+01                                 F               0         Blade 1 X translation displacement, node 24, m
        188   -6.550E+00                                 F               0         Blade 1 Y translation displacement, node 24, m
        189   -2.110E+02                                 F               0         Blade 1 Z translation displacement, node 24, m
        190   -2.247E+01                                 F               0         Blade 1 X translation displacement, node 25, m
        191   -6.523E+00                                 F               0         Blade 1 Y translation displacement, node 25, m
        192   -2.187E+02                                 F               0         Blade 1 Z translation displacement, node 25, m
        193   -2.336E+01                                 F               0         Blade 1 X translation displacement, node 26, m
        194   -6.496E+00                                 F               0         Blade 1 Y translation displacement, node 26, m
        195   -2.264E+02                                 F               0         Blade 1 Z translation displacement, node 26, m
        196   -2.426E+01                                 F               0         Blade 1 X translation displacement, node 27, m
        197   -6.469E+00                                 F               0         Blade 1 Y translation displacement, node 27, m
        198   -2.341E+02                                 F               0         Blade 1 Z translation displacement, node 27, m
        199   -2.502E+01                                 F               0         Blade 1 X translation displacement, node 28, m
        200   -6.446E+00                                 F               0         Blade 1 Y translation displacement, node 28, m
        201   -2.406E+02                                 F               0         Blade 1 Z translation displacement, node 28, m
        202    8.632E-01,  4.934E-01, -1.071E-01         F               0         Blade 1 X orientation angle, node 1, rad
        203    4.886E-01, -8.698E-01, -6.874E-02         F               0         Blade 1 Y orientation angle, node 1, rad
        204   -1.271E-01,  6.991E-03, -9.919E-01         F               0         Blade 1 Z orientation angle, node 1, rad
        205    8.632E-01,  4.934E-01, -1.071E-01         F               0         Blade 1 X orientation angle, node 2, rad
        206    4.886E-01, -8.698E-01, -6.874E-02         F               0         Blade 1 Y orientation angle, node 2, rad
        207   -1.271E-01,  6.991E-03, -9.919E-01         F               0         Blade 1 Z orientation angle, node 2, rad
        208    9.544E-01,  2.731E-01, -1.204E-01         F               0         Blade 1 X orientation angle, node 3, rad
        209    2.701E-01, -9.619E-01, -4.139E-02         F               0         Blade 1 Y orientation angle, node 3, rad
        210   -1.271E-01,  6.991E-03, -9.919E-01         F               0         Blade 1 Z orientation angle, node 3, rad
        211    9.650E-01,  2.323E-01, -1.220E-01         F               0         Blade 1 X orientation angle, node 4, rad
        212    2.295E-01, -9.726E-01, -3.627E-02         F               0         Blade 1 Y orientation angle, node 4, rad
        213   -1.271E-01,  6.991E-03, -9.919E-01         F               0         Blade 1 Z orientation angle, node 4, rad
        214    9.720E-01,  1.999E-01, -1.232E-01         F               0         Blade 1 X orientation angle, node 5, rad
        215    1.974E-01, -9.798E-01, -3.221E-02         F               0         Blade 1 Y orientation angle, node 5, rad
        216   -1.271E-01,  6.991E-03, -9.919E-01         F               0         Blade 1 Z orientation angle, node 5, rad
        217    9.769E-01,  1.738E-01, -1.240E-01         F               0         Blade 1 X orientation angle, node 6, rad
        218    1.716E-01, -9.847E-01, -2.893E-02         F               0         Blade 1 Y orientation angle, node 6, rad
        219   -1.271E-01,  6.991E-03, -9.919E-01         F               0         Blade 1 Z orientation angle, node 6, rad
        220    9.804E-01,  1.523E-01, -1.246E-01         F               0         Blade 1 X orientation angle, node 7, rad
        221    1.502E-01, -9.883E-01, -2.622E-02         F               0         Blade 1 Y orientation angle, node 7, rad
        222   -1.271E-01,  6.991E-03, -9.919E-01         F               0         Blade 1 Z orientation angle, node 7, rad
        223    9.830E-01,  1.344E-01, -1.250E-01         F               0         Blade 1 X orientation angle, node 8, rad
        224    1.324E-01, -9.909E-01, -2.395E-02         F               0         Blade 1 Y orientation angle, node 8, rad
        225   -1.271E-01,  6.991E-03, -9.919E-01         F               0         Blade 1 Z orientation angle, node 8, rad
        226    9.849E-01,  1.191E-01, -1.254E-01         F               0         Blade 1 X orientation angle, node 9, rad
        227    1.173E-01, -9.929E-01, -2.203E-02         F               0         Blade 1 Y orientation angle, node 9, rad