
Linearized model: Predictions were generated on 24-Jan-2024 at 11:24:37 using OpenFAST, compiled as a 64-bit application using single precision at commit v3.5.1
 linked with  NWTC Subroutine Library; ElastoDyn; InflowWind; AeroDyn; ServoDyn; HydroDyn; MAP++ (<1.20.10>, <Oct-20-2023>)

Description from the FAST input file: CCT-9 Campign 4 model. Input files to be run with OpenFAST 3.5.0. GitHub branch from Lu Wang (https://github.com/luwang00/openfast/tree/dev) compiled on March 7, 2023.

Simulation information:
   Simulation time:                   504.7000 s
   Rotor Speed:                         0.8939 rad/s
   Azimuth:                             5.7420 rad
   Wind Speed:                         10.0000 m/s
   Number of continuous states:        12
   Number of discrete states:           0
   Number of constraint states:         0
   Number of inputs:                 3988
   Number of outputs:                  31
   Jacobians included in this file?    No

Order of continuous states:
   Row/Column Operating Point                     Rotating Frame? Derivative Order Description
   ---------- ---------------                     --------------- ---------------- -----------
          1    7.515E-03                                 F               2         ED Platform yaw rotation DOF (internal DOF index = DOF_Y), rad
          2    3.842E-01                                 F               2         ED 1st tower fore-aft bending mode DOF (internal DOF index = DOF_TFA1), m
          3    1.651E-01                                 F               2         ED 1st tower side-to-side bending mode DOF (internal DOF index = DOF_TSS1), m
          4    1.288E-03                                 F               2         ED 2nd tower fore-aft bending mode DOF (internal DOF index = DOF_TFA2), m
          5    7.598E-05                                 F               2         ED 2nd tower side-to-side bending mode DOF (internal DOF index = DOF_TSS2), m
          6    4.171E+00                                 F               2         ED Variable speed generator DOF (internal DOF index = DOF_GeAz), rad
          7   -1.244E-06                                 F               2         ED First time derivative of Platform yaw rotation DOF (internal DOF index = DOF_Y), rad/s
          8    8.222E-04                                 F               2         ED First time derivative of 1st tower fore-aft bending mode DOF (internal DOF index = DOF_TFA1), m/s
          9    3.271E-04                                 F               2         ED First time derivative of 1st tower side-to-side bending mode DOF (internal DOF index = DOF_TSS1), m/s
         10   -3.774E-06                                 F               2         ED First time derivative of 2nd tower fore-aft bending mode DOF (internal DOF index = DOF_TFA2), m/s
         11   -1.883E-07                                 F               2         ED First time derivative of 2nd tower side-to-side bending mode DOF (internal DOF index = DOF_TSS2), m/s
         12    8.939E-01                                 F               2         ED First time derivative of Variable speed generator DOF (internal DOF index = DOF_GeAz), rad/s

Order of continuous state derivatives:
   Row/Column Operating Point                     Rotating Frame? Derivative Order Description
   ---------- ---------------                     --------------- ---------------- -----------
          1   -1.244E-06                                 F               2         First time derivative of ED Platform yaw rotation DOF (internal DOF index = DOF_Y), rad/s
          2    8.222E-04                                 F               2         First time derivative of ED 1st tower fore-aft bending mode DOF (internal DOF index = DOF_TFA1), m/s
          3    3.271E-04                                 F               2         First time derivative of ED 1st tower side-to-side bending mode DOF (internal DOF index = DOF_TSS1), m/s
          4   -3.774E-06                                 F               2         First time derivative of ED 2nd tower fore-aft bending mode DOF (internal DOF index = DOF_TFA2), m/s
          5   -1.883E-07                                 F               2         First time derivative of ED 2nd tower side-to-side bending mode DOF (internal DOF index = DOF_TSS2), m/s
          6    8.939E-01                                 F               2         First time derivative of ED Variable speed generator DOF (internal DOF index = DOF_GeAz), rad/s
          7   -3.821E-06                                 F               2         First time derivative of ED First time derivative of Platform yaw rotation DOF (internal DOF index = DOF_Y), rad/s/s
          8    5.082E-04                                 F               2         First time derivative of ED First time derivative of 1st tower fore-aft bending mode DOF (internal DOF index = DOF_TFA1), m/s/s
          9    2.552E-03                                 F               2         First time derivative of ED First time derivative of 1st tower side-to-side bending mode DOF (internal DOF index = DOF_TSS1), m/s/s
         10    8.441E-06                                 F               2         First time derivative of ED First time derivative of 2nd tower fore-aft bending mode DOF (internal DOF index = DOF_TFA2), m/s/s
         11   -1.598E-06                                 F               2         First time derivative of ED First time derivative of 2nd tower side-to-side bending mode DOF (internal DOF index = DOF_TSS2), m/s/s
         12   -2.175E-04                                 F               2         First time derivative of ED First time derivative of Variable speed generator DOF (internal DOF index = DOF_GeAz), rad/s/s

Order of inputs:
     Column   Operating Point                     Rotating Frame? Derivative Order Description
   ---------- ---------------                     --------------- ---------------- -----------
          1   -1.080E+01                                 F               0         IfW X-component position of node 1 (hub), m
          2    0.000E+00                                 F               0         IfW Y-component position of node 1 (hub), m
          3    1.497E+02                                 F               0         IfW Z-component position of node 1 (hub), m
          4   -7.177E+00                                 F               0         IfW X-component position of node 2 (blade 1, node 1), m
          5   -4.642E+00                                 F               0         IfW Y-component position of node 2 (blade 1, node 1), m
          6    1.546E+02                                 F               0         IfW Z-component position of node 2 (blade 1, node 1), m
          7   -7.036E+00                                 F               0         IfW X-component position of node 3 (blade 1, node 2), m
          8   -4.006E+00                                 F               0         IfW Y-component position of node 3 (blade 1, node 2), m
          9    1.558E+02                                 F               0         IfW Z-component position of node 3 (blade 1, node 2), m
         10   -5.119E+00                                 F               0         IfW X-component position of node 4 (blade 1, node 3), m
         11    4.651E+00                                 F               0         IfW Y-component position of node 4 (blade 1, node 3), m
         12    1.716E+02                                 F               0         IfW Z-component position of node 4 (blade 1, node 3), m
         13   -4.711E+00                                 F               0         IfW X-component position of node 5 (blade 1, node 4), m
         14    6.495E+00                                 F               0         IfW Y-component position of node 5 (blade 1, node 4), m
         15    1.750E+02                                 F               0         IfW Z-component position of node 5 (blade 1, node 4), m
         16   -4.302E+00                                 F               0         IfW X-component position of node 6 (blade 1, node 5), m
         17    8.340E+00                                 F               0         IfW Y-component position of node 6 (blade 1, node 5), m
         18    1.784E+02                                 F               0         IfW Z-component position of node 6 (blade 1, node 5), m
         19   -3.894E+00                                 F               0         IfW X-component position of node 7 (blade 1, node 6), m
         20    1.018E+01                                 F               0         IfW Y-component position of node 7 (blade 1, node 6), m
         21    1.817E+02                                 F               0         IfW Z-component position of node 7 (blade 1, node 6), m
         22   -3.485E+00                                 F               0         IfW X-component position of node 8 (blade 1, node 7), m
         23    1.203E+01                                 F               0         IfW Y-component position of node 8 (blade 1, node 7), m
         24    1.851E+02                                 F               0         IfW Z-component position of node 8 (blade 1, node 7), m
         25   -3.077E+00                                 F               0         IfW X-component position of node 9 (blade 1, node 8), m
         26    1.387E+01                                 F               0         IfW Y-component position of node 9 (blade 1, node 8), m
         27    1.885E+02                                 F               0         IfW Z-component position of node 9 (blade 1, node 8), m
         28   -2.668E+00                                 F               0         IfW X-component position of node 10 (blade 1, node 9), m
         29    1.572E+01                                 F               0         IfW Y-component position of node 10 (blade 1, node 9), m
         30    1.919E+02                                 F               0         IfW Z-component position of node 10 (blade 1, node 9), m
         31   -2.260E+00                                 F               0         IfW X-component position of node 11 (blade 1, node 10), m
         32    1.756E+01                                 F               0         IfW Y-component position of node 11 (blade 1, node 10), m
         33    1.952E+02                                 F               0         IfW Z-component position of node 11 (blade 1, node 10), m
         34   -1.852E+00                                 F               0         IfW X-component position of node 12 (blade 1, node 11), m
         35    1.941E+01                                 F               0         IfW Y-component position of node 12 (blade 1, node 11), m
         36    1.986E+02                                 F               0         IfW Z-component position of node 12 (blade 1, node 11), m
         37   -1.443E+00                                 F               0         IfW X-component position of node 13 (blade 1, node 12), m
         38    2.125E+01                                 F               0         IfW Y-component position of node 13 (blade 1, node 12), m
         39    2.020E+02                                 F               0         IfW Z-component position of node 13 (blade 1, node 12), m
         40   -1.035E+00                                 F               0         IfW X-component position of node 14 (blade 1, node 13), m
         41    2.310E+01                                 F               0         IfW Y-component position of node 14 (blade 1, node 13), m
         42    2.054E+02                                 F               0         IfW Z-component position of node 14 (blade 1, node 13), m
         43   -6.262E-01                                 F               0         IfW X-component position of node 15 (blade 1, node 14), m
         44    2.494E+01                                 F               0         IfW Y-component position of node 15 (blade 1, node 14), m
         45    2.087E+02                                 F               0         IfW Z-component position of node 15 (blade 1, node 14), m
         46   -2.177E-01                                 F               0         IfW X-component position of node 16 (blade 1, node 15), m
         47    2.678E+01                                 F               0         IfW Y-component position of node 16 (blade 1, node 15), m
         48    2.121E+02                                 F               0         IfW Z-component position of node 16 (blade 1, node 15), m
         49    1.907E-01                                 F               0         IfW X-component position of node 17 (blade 1, node 16), m
         50    2.863E+01                                 F               0         IfW Y-component position of node 17 (blade 1, node 16), m
         51    2.155E+02                                 F               0         IfW Z-component position of node 17 (blade 1, node 16), m
         52    5.992E-01                                 F               0         IfW X-component position of node 18 (blade 1, node 17), m
         53    3.047E+01                                 F               0         IfW Y-component position of node 18 (blade 1, node 17), m
         54    2.189E+02                                 F               0         IfW Z-component position of node 18 (blade 1, node 17), m
         55    1.008E+00                                 F               0         IfW X-component position of node 19 (blade 1, node 18), m
         56    3.232E+01                                 F               0         IfW Y-component position of node 19 (blade 1, node 18), m
         57    2.222E+02                                 F               0         IfW Z-component position of node 19 (blade 1, node 18), m
         58    1.416E+00                                 F               0         IfW X-component position of node 20 (blade 1, node 19), m
         59    3.416E+01                                 F               0         IfW Y-component position of node 20 (blade 1, node 19), m
         60    2.256E+02                                 F               0         IfW Z-component position of node 20 (blade 1, node 19), m
         61    1.825E+00                                 F               0         IfW X-component position of node 21 (blade 1, node 20), m
         62    3.601E+01                                 F               0         IfW Y-component position of node 21 (blade 1, node 20), m
         63    2.290E+02                                 F               0         IfW Z-component position of node 21 (blade 1, node 20), m
         64    2.233E+00                                 F               0         IfW X-component position of node 22 (blade 1, node 21), m
         65    3.785E+01                                 F               0         IfW Y-component position of node 22 (blade 1, node 21), m
         66    2.324E+02                                 F               0         IfW Z-component position of node 22 (blade 1, node 21), m
         67    2.641E+00                                 F               0         IfW X-component position of node 23 (blade 1, node 22), m
         68    3.970E+01                                 F               0         IfW Y-component position of node 23 (blade 1, node 22), m
         69    2.357E+02                                 F               0         IfW Z-component position of node 23 (blade 1, node 22), m
         70    3.050E+00                                 F               0         IfW X-component position of node 24 (blade 1, node 23), m
         71    4.154E+01                                 F               0         IfW Y-component position of node 24 (blade 1, node 23), m
         72    2.391E+02                                 F               0         IfW Z-component position of node 24 (blade 1, node 23), m
         73    3.458E+00                                 F               0         IfW X-component position of node 25 (blade 1, node 24), m
         74    4.338E+01                                 F               0         IfW Y-component position of node 25 (blade 1, node 24), m
         75    2.425E+02                                 F               0         IfW Z-component position of node 25 (blade 1, node 24), m
         76    3.867E+00                                 F               0         IfW X-component position of node 26 (blade 1, node 25), m
         77    4.523E+01                                 F               0         IfW Y-component position of node 26 (blade 1, node 25), m
         78    2.459E+02                                 F               0         IfW Z-component position of node 26 (blade 1, node 25), m
         79    4.275E+00                                 F               0         IfW X-component position of node 27 (blade 1, node 26), m
         80    4.707E+01                                 F               0         IfW Y-component position of node 27 (blade 1, node 26), m
         81    2.492E+02                                 F               0         IfW Z-component position of node 27 (blade 1, node 26), m
         82    4.684E+00                                 F               0         IfW X-component position of node 28 (blade 1, node 27), m
         83    4.892E+01                                 F               0         IfW Y-component position of node 28 (blade 1, node 27), m
         84    2.526E+02                                 F               0         IfW Z-component position of node 28 (blade 1, node 27), m
         85    5.030E+00                                 F               0         IfW X-component position of node 29 (blade 1, node 28), m
         86    5.048E+01                                 F               0         IfW Y-component position of node 29 (blade 1, node 28), m
         87    2.555E+02                                 F               0         IfW Z-component position of node 29 (blade 1, node 28), m
         88   -7.711E+00                                 F               0         IfW X-component position of node 30 (blade 2, node 1), m
         89   -1.282E+01                                 F               0         IfW Y-component position of node 30 (blade 2, node 1), m
         90    1.496E+02                                 F               0         IfW Z-component position of node 30 (blade 2, node 1), m
         91   -7.698E+00                                 F               0         IfW X-component position of node 31 (blade 2, node 2), m
         92   -1.416E+01                                 F               0         IfW Y-component position of node 31 (blade 2, node 2), m
         93    1.496E+02                                 F               0         IfW Z-component position of node 31 (blade 2, node 2), m
         94   -7.529E+00                                 F               0         IfW X-component position of node 32 (blade 2, node 3), m
         95   -3.230E+01                                 F               0         IfW Y-component position of node 32 (blade 2, node 3), m
         96    1.491E+02                                 F               0         IfW Z-component position of node 32 (blade 2, node 3), m
         97   -7.493E+00                                 F               0         IfW X-component position of node 33 (blade 2, node 4), m
         98   -3.617E+01                                 F               0         IfW Y-component position of node 33 (blade 2, node 4), m
         99    1.490E+02                                 F               0         IfW Z-component position of node 33 (blade 2, node 4), m
        100   -7.457E+00                                 F               0         IfW X-component position of node 34 (blade 2, node 5), m
        101   -4.003E+01                                 F               0         IfW Y-component position of node 34 (blade 2, node 5), m
        102    1.489E+02                                 F               0         IfW Z-component position of node 34 (blade 2, node 5), m
        103   -7.421E+00                                 F               0         IfW X-component position of node 35 (blade 2, node 6), m
        104   -4.390E+01                                 F               0         IfW Y-component position of node 35 (blade 2, node 6), m
        105    1.488E+02                                 F               0         IfW Z-component position of node 35 (blade 2, node 6), m
        106   -7.385E+00                                 F               0         IfW X-component position of node 36 (blade 2, node 7), m
        107   -4.776E+01                                 F               0         IfW Y-component position of node 36 (blade 2, node 7), m
        108    1.486E+02                                 F               0         IfW Z-component position of node 36 (blade 2, node 7), m
        109   -7.349E+00                                 F               0         IfW X-component position of node 37 (blade 2, node 8), m
        110   -5.163E+01                                 F               0         IfW Y-component position of node 37 (blade 2, node 8), m
        111    1.485E+02                                 F               0         IfW Z-component position of node 37 (blade 2, node 8), m
        112   -7.314E+00                                 F               0         IfW X-component position of node 38 (blade 2, node 9), m
        113   -5.550E+01                                 F               0         IfW Y-component position of node 38 (blade 2, node 9), m
        114    1.484E+02                                 F               0         IfW Z-component position of node 38 (blade 2, node 9), m
        115   -7.278E+00                                 F               0         IfW X-component position of node 39 (blade 2, node 10), m
        116   -5.936E+01                                 F               0         IfW Y-component position of node 39 (blade 2, node 10), m
        117    1.483E+02                                 F               0         IfW Z-component position of node 39 (blade 2, node 10), m
        118   -7.242E+00                                 F               0         IfW X-component position of node 40 (blade 2, node 11), m
        119   -6.323E+01                                 F               0         IfW Y-component position of node 40 (blade 2, node 11), m
        120    1.482E+02                                 F               0         IfW Z-component position of node 40 (blade 2, node 11), m
        121   -7.206E+00                                 F               0         IfW X-component position of node 41 (blade 2, node 12), m
        122   -6.710E+01                                 F               0         IfW Y-component position of node 41 (blade 2, node 12), m
        123    1.481E+02                                 F               0         IfW Z-component position of node 41 (blade 2, node 12), m
        124   -7.170E+00                                 F               0         IfW X-component position of node 42 (blade 2, node 13), m
        125   -7.096E+01                                 F               0         IfW Y-component position of node 42 (blade 2, node 13), m
        126    1.480E+02                                 F               0         IfW Z-component position of node 42 (blade 2, node 13), m
        127   -7.134E+00                                 F               0         IfW X-component position of node 43 (blade 2, node 14), m
        128   -7.483E+01                                 F               0         IfW Y-component position of node 43 (blade 2, node 14), m
        129    1.479E+02                                 F               0         IfW Z-component position of node 43 (blade 2, node 14), m
        130   -7.098E+00                                 F               0         IfW X-component position of node 44 (blade 2, node 15), m
        131   -7.869E+01                                 F               0         IfW Y-component position of node 44 (blade 2, node 15), m
        132    1.478E+02                                 F               0         IfW Z-component position of node 44 (blade 2, node 15), m
        133   -7.062E+00                                 F               0         IfW X-component position of node 45 (blade 2, node 16), m
        134   -8.256E+01                                 F               0         IfW Y-component position of node 45 (blade 2, node 16), m
        135    1.477E+02                                 F               0         IfW Z-component position of node 45 (blade 2, node 16), m
        136   -7.026E+00                                 F               0         IfW X-component position of node 46 (blade 2, node 17), m
        137   -8.643E+01                                 F               0         IfW Y-component position of node 46 (blade 2, node 17), m
        138    1.476E+02                                 F               0         IfW Z-component position of node 46 (blade 2, node 17), m
        139   -6.990E+00                                 F               0         IfW X-component position of node 47 (blade 2, node 18), m
        140   -9.029E+01                                 F               0         IfW Y-component position of node 47 (blade 2, node 18), m
        141    1.475E+02                                 F               0         IfW Z-component position of node 47 (blade 2, node 18), m
        142   -6.954E+00                                 F               0         IfW X-component position of node 48 (blade 2, node 19), m
        143   -9.416E+01                                 F               0         IfW Y-component position of node 48 (blade 2, node 19), m
        144    1.474E+02                                 F               0         IfW Z-component position of node 48 (blade 2, node 19), m
        145   -6.918E+00                                 F               0         IfW X-component position of node 49 (blade 2, node 20), m
        146   -9.802E+01                                 F               0         IfW Y-component position of node 49 (blade 2, node 20), m
        147    1.472E+02                                 F               0         IfW Z-component position of node 49 (blade 2, node 20), m
        148   -6.882E+00                                 F               0         IfW X-component position of node 50 (blade 2, node 21), m
        149   -1.019E+02                                 F               0         IfW Y-component position of node 50 (blade 2, node 21), m
        150    1.471E+02                                 F               0         IfW Z-component position of node 50 (blade 2, node 21), m
        151   -6.846E+00                                 F               0         IfW X-component position of node 51 (blade 2, node 22), m
        152   -1.058E+02                                 F               0         IfW Y-component position of node 51 (blade 2, node 22), m
        153    1.470E+02                                 F               0         IfW Z-component position of node 51 (blade 2, node 22), m
        154   -6.810E+00                                 F               0         IfW X-component position of node 52 (blade 2, node 23), m
        155   -1.096E+02                                 F               0         IfW Y-component position of node 52 (blade 2, node 23), m
        156    1.469E+02                                 F               0         IfW Z-component position of node 52 (blade 2, node 23), m
        157   -6.774E+00                                 F               0         IfW X-component position of node 53 (blade 2, node 24), m
        158   -1.135E+02                                 F               0         IfW Y-component position of node 53 (blade 2, node 24), m
        159    1.468E+02                                 F               0         IfW Z-component position of node 53 (blade 2, node 24), m
        160   -6.738E+00                                 F               0         IfW X-component position of node 54 (blade 2, node 25), m
        161   -1.174E+02                                 F               0         IfW Y-component position of node 54 (blade 2, node 25), m
        162    1.467E+02                                 F               0         IfW Z-component position of node 54 (blade 2, node 25), m
        163   -6.702E+00                                 F               0         IfW X-component position of node 55 (blade 2, node 26), m
        164   -1.212E+02                                 F               0         IfW Y-component position of node 55 (blade 2, node 26), m
        165    1.466E+02                                 F               0         IfW Z-component position of node 55 (blade 2, node 26), m
        166   -6.666E+00                                 F               0         IfW X-component position of node 56 (blade 2, node 27), m
        167   -1.251E+02                                 F               0         IfW Y-component position of node 56 (blade 2, node 27), m
        168    1.465E+02                                 F               0         IfW Z-component position of node 56 (blade 2, node 27), m
        169   -6.635E+00                                 F               0         IfW X-component position of node 57 (blade 2, node 28), m
        170   -1.284E+02                                 F               0         IfW Y-component position of node 57 (blade 2, node 28), m