
Linearized model: Predictions were generated on 24-Jan-2024 at 11:24:37 using OpenFAST, compiled as a 64-bit application using single precision at commit v3.5.1
 linked with  NWTC Subroutine Library; ElastoDyn; InflowWind; AeroDyn; ServoDyn; HydroDyn; MAP++ (<1.20.10>, <Oct-20-2023>)

Description from the FAST input file: CCT-9 Campign 4 model. Input files to be run with OpenFAST 3.5.0. GitHub branch from Lu Wang (https://github.com/luwang00/openfast/tree/dev) compiled on March 7, 2023.

Simulation information:
   Simulation time:                   504.9500 s
   Rotor Speed:                         0.8938 rad/s
   Azimuth:                             5.9655 rad
   Wind Speed:                         10.0000 m/s
   Number of continuous states:         0
   Number of discrete states:           0
   Number of constraint states:         0
   Number of inputs:                  303
   Number of outputs:                   1
   Jacobians included in this file?    No

Order of inputs:
     Column   Operating Point                     Rotating Frame? Derivative Order Description
   ---------- ---------------                     --------------- ---------------- -----------
          1   -1.080E+01                                 F               0         X-component position of node 1 (hub), m
          2    0.000E+00                                 F               0         Y-component position of node 1 (hub), m
          3    1.497E+02                                 F               0         Z-component position of node 1 (hub), m
          4   -7.103E+00                                 F               0         X-component position of node 2 (blade 1, node 1), m
          5   -5.787E+00                                 F               0         Y-component position of node 2 (blade 1, node 1), m
          6    1.551E+02                                 F               0         Z-component position of node 2 (blade 1, node 1), m
          7   -6.945E+00                                 F               0         X-component position of node 3 (blade 1, node 2), m
          8   -5.426E+00                                 F               0         Y-component position of node 3 (blade 1, node 2), m
          9    1.563E+02                                 F               0         Z-component position of node 3 (blade 1, node 2), m
         10   -4.787E+00                                 F               0         X-component position of node 4 (blade 1, node 3), m
         11   -5.206E-01                                 F               0         Y-component position of node 4 (blade 1, node 3), m
         12    1.737E+02                                 F               0         Z-component position of node 4 (blade 1, node 3), m
         13   -4.327E+00                                 F               0         X-component position of node 5 (blade 1, node 4), m
         14    5.246E-01                                 F               0         Y-component position of node 5 (blade 1, node 4), m
         15    1.774E+02                                 F               0         Z-component position of node 5 (blade 1, node 4), m
         16   -3.867E+00                                 F               0         X-component position of node 6 (blade 1, node 5), m
         17    1.570E+00                                 F               0         Y-component position of node 6 (blade 1, node 5), m
         18    1.811E+02                                 F               0         Z-component position of node 6 (blade 1, node 5), m
         19   -3.407E+00                                 F               0         X-component position of node 7 (blade 1, node 6), m
         20    2.615E+00                                 F               0         Y-component position of node 7 (blade 1, node 6), m
         21    1.848E+02                                 F               0         Z-component position of node 7 (blade 1, node 6), m
         22   -2.948E+00                                 F               0         X-component position of node 8 (blade 1, node 7), m
         23    3.661E+00                                 F               0         Y-component position of node 8 (blade 1, node 7), m
         24    1.885E+02                                 F               0         Z-component position of node 8 (blade 1, node 7), m
         25   -2.488E+00                                 F               0         X-component position of node 9 (blade 1, node 8), m
         26    4.706E+00                                 F               0         Y-component position of node 9 (blade 1, node 8), m
         27    1.922E+02                                 F               0         Z-component position of node 9 (blade 1, node 8), m
         28   -2.028E+00                                 F               0         X-component position of node 10 (blade 1, node 9), m
         29    5.751E+00                                 F               0         Y-component position of node 10 (blade 1, node 9), m
         30    1.959E+02                                 F               0         Z-component position of node 10 (blade 1, node 9), m
         31   -1.568E+00                                 F               0         X-component position of node 11 (blade 1, node 10), m
         32    6.796E+00                                 F               0         Y-component position of node 11 (blade 1, node 10), m
         33    1.996E+02                                 F               0         Z-component position of node 11 (blade 1, node 10), m
         34   -1.109E+00                                 F               0         X-component position of node 12 (blade 1, node 11), m
         35    7.842E+00                                 F               0         Y-component position of node 12 (blade 1, node 11), m
         36    2.032E+02                                 F               0         Z-component position of node 12 (blade 1, node 11), m
         37   -6.488E-01                                 F               0         X-component position of node 13 (blade 1, node 12), m
         38    8.887E+00                                 F               0         Y-component position of node 13 (blade 1, node 12), m
         39    2.069E+02                                 F               0         Z-component position of node 13 (blade 1, node 12), m
         40   -1.891E-01                                 F               0         X-component position of node 14 (blade 1, node 13), m
         41    9.932E+00                                 F               0         Y-component position of node 14 (blade 1, node 13), m
         42    2.106E+02                                 F               0         Z-component position of node 14 (blade 1, node 13), m
         43    2.707E-01                                 F               0         X-component position of node 15 (blade 1, node 14), m
         44    1.098E+01                                 F               0         Y-component position of node 15 (blade 1, node 14), m
         45    2.143E+02                                 F               0         Z-component position of node 15 (blade 1, node 14), m
         46    7.305E-01                                 F               0         X-component position of node 16 (blade 1, node 15), m
         47    1.202E+01                                 F               0         Y-component position of node 16 (blade 1, node 15), m
         48    2.180E+02                                 F               0         Z-component position of node 16 (blade 1, node 15), m
         49    1.190E+00                                 F               0         X-component position of node 17 (blade 1, node 16), m
         50    1.307E+01                                 F               0         Y-component position of node 17 (blade 1, node 16), m
         51    2.217E+02                                 F               0         Z-component position of node 17 (blade 1, node 16), m
         52    1.650E+00                                 F               0         X-component position of node 18 (blade 1, node 17), m
         53    1.411E+01                                 F               0         Y-component position of node 18 (blade 1, node 17), m
         54    2.254E+02                                 F               0         Z-component position of node 18 (blade 1, node 17), m
         55    2.110E+00                                 F               0         X-component position of node 19 (blade 1, node 18), m
         56    1.516E+01                                 F               0         Y-component position of node 19 (blade 1, node 18), m
         57    2.291E+02                                 F               0         Z-component position of node 19 (blade 1, node 18), m
         58    2.570E+00                                 F               0         X-component position of node 20 (blade 1, node 19), m
         59    1.620E+01                                 F               0         Y-component position of node 20 (blade 1, node 19), m
         60    2.328E+02                                 F               0         Z-component position of node 20 (blade 1, node 19), m
         61    3.029E+00                                 F               0         X-component position of node 21 (blade 1, node 20), m
         62    1.725E+01                                 F               0         Y-component position of node 21 (blade 1, node 20), m
         63    2.365E+02                                 F               0         Z-component position of node 21 (blade 1, node 20), m
         64    3.489E+00                                 F               0         X-component position of node 22 (blade 1, node 21), m
         65    1.829E+01                                 F               0         Y-component position of node 22 (blade 1, node 21), m
         66    2.402E+02                                 F               0         Z-component position of node 22 (blade 1, node 21), m
         67    3.949E+00                                 F               0         X-component position of node 23 (blade 1, node 22), m
         68    1.934E+01                                 F               0         Y-component position of node 23 (blade 1, node 22), m
         69    2.439E+02                                 F               0         Z-component position of node 23 (blade 1, node 22), m
         70    4.409E+00                                 F               0         X-component position of node 24 (blade 1, node 23), m
         71    2.039E+01                                 F               0         Y-component position of node 24 (blade 1, node 23), m
         72    2.476E+02                                 F               0         Z-component position of node 24 (blade 1, node 23), m
         73    4.868E+00                                 F               0         X-component position of node 25 (blade 1, node 24), m
         74    2.143E+01                                 F               0         Y-component position of node 25 (blade 1, node 24), m
         75    2.513E+02                                 F               0         Z-component position of node 25 (blade 1, node 24), m
         76    5.328E+00                                 F               0         X-component position of node 26 (blade 1, node 25), m
         77    2.248E+01                                 F               0         Y-component position of node 26 (blade 1, node 25), m
         78    2.550E+02                                 F               0         Z-component position of node 26 (blade 1, node 25), m
         79    5.788E+00                                 F               0         X-component position of node 27 (blade 1, node 26), m
         80    2.352E+01                                 F               0         Y-component position of node 27 (blade 1, node 26), m
         81    2.587E+02                                 F               0         Z-component position of node 27 (blade 1, node 26), m
         82    6.248E+00                                 F               0         X-component position of node 28 (blade 1, node 27), m
         83    2.457E+01                                 F               0         Y-component position of node 28 (blade 1, node 27), m
         84    2.624E+02                                 F               0         Z-component position of node 28 (blade 1, node 27), m
         85    6.637E+00                                 F               0         X-component position of node 29 (blade 1, node 28), m
         86    2.545E+01                                 F               0         Y-component position of node 29 (blade 1, node 28), m
         87    2.655E+02                                 F               0         Z-component position of node 29 (blade 1, node 28), m
         88   -7.868E+00                                 F               0         X-component position of node 30 (blade 2, node 1), m
         89   -1.265E+01                                 F               0         Y-component position of node 30 (blade 2, node 1), m
         90    1.484E+02                                 F               0         Z-component position of node 30 (blade 2, node 1), m
         91   -7.894E+00                                 F               0         X-component position of node 31 (blade 2, node 2), m
         92   -1.395E+01                                 F               0         Y-component position of node 31 (blade 2, node 2), m
         93    1.481E+02                                 F               0         Z-component position of node 31 (blade 2, node 2), m
         94   -8.241E+00                                 F               0         X-component position of node 32 (blade 2, node 3), m
         95   -3.153E+01                                 F               0         Y-component position of node 32 (blade 2, node 3), m
         96    1.436E+02                                 F               0         Z-component position of node 32 (blade 2, node 3), m
         97   -8.315E+00                                 F               0         X-component position of node 33 (blade 2, node 4), m
         98   -3.528E+01                                 F               0         Y-component position of node 33 (blade 2, node 4), m
         99    1.426E+02                                 F               0         Z-component position of node 33 (blade 2, node 4), m
        100   -8.389E+00                                 F               0         X-component position of node 34 (blade 2, node 5), m
        101   -3.903E+01                                 F               0         Y-component position of node 34 (blade 2, node 5), m
        102    1.417E+02                                 F               0         Z-component position of node 34 (blade 2, node 5), m
        103   -8.463E+00                                 F               0         X-component position of node 35 (blade 2, node 6), m
        104   -4.277E+01                                 F               0         Y-component position of node 35 (blade 2, node 6), m
        105    1.407E+02                                 F               0         Z-component position of node 35 (blade 2, node 6), m
        106   -8.537E+00                                 F               0         X-component position of node 36 (blade 2, node 7), m
        107   -4.652E+01                                 F               0         Y-component position of node 36 (blade 2, node 7), m
        108    1.398E+02                                 F               0         Z-component position of node 36 (blade 2, node 7), m
        109   -8.611E+00                                 F               0         X-component position of node 37 (blade 2, node 8), m
        110   -5.027E+01                                 F               0         Y-component position of node 37 (blade 2, node 8), m
        111    1.388E+02                                 F               0         Z-component position of node 37 (blade 2, node 8), m
        112   -8.685E+00                                 F               0         X-component position of node 38 (blade 2, node 9), m
        113   -5.402E+01                                 F               0         Y-component position of node 38 (blade 2, node 9), m
        114    1.379E+02                                 F               0         Z-component position of node 38 (blade 2, node 9), m
        115   -8.759E+00                                 F               0         X-component position of node 39 (blade 2, node 10), m
        116   -5.776E+01                                 F               0         Y-component position of node 39 (blade 2, node 10), m
        117    1.369E+02                                 F               0         Z-component position of node 39 (blade 2, node 10), m
        118   -8.833E+00                                 F               0         X-component position of node 40 (blade 2, node 11), m
        119   -6.151E+01                                 F               0         Y-component position of node 40 (blade 2, node 11), m
        120    1.360E+02                                 F               0         Z-component position of node 40 (blade 2, node 11), m
        121   -8.907E+00                                 F               0         X-component position of node 41 (blade 2, node 12), m
        122   -6.526E+01                                 F               0         Y-component position of node 41 (blade 2, node 12), m
        123    1.350E+02                                 F               0         Z-component position of node 41 (blade 2, node 12), m
        124   -8.982E+00                                 F               0         X-component position of node 42 (blade 2, node 13), m
        125   -6.900E+01                                 F               0         Y-component position of node 42 (blade 2, node 13), m
        126    1.340E+02                                 F               0         Z-component position of node 42 (blade 2, node 13), m
        127   -9.056E+00                                 F               0         X-component position of node 43 (blade 2, node 14), m
        128   -7.275E+01                                 F               0         Y-component position of node 43 (blade 2, node 14), m
        129    1.331E+02                                 F               0         Z-component position of node 43 (blade 2, node 14), m
        130   -9.130E+00                                 F               0         X-component position of node 44 (blade 2, node 15), m
        131   -7.650E+01                                 F               0         Y-component position of node 44 (blade 2, node 15), m
        132    1.321E+02                                 F               0         Z-component position of node 44 (blade 2, node 15), m
        133   -9.204E+00                                 F               0         X-component position of node 45 (blade 2, node 16), m
        134   -8.025E+01                                 F               0         Y-component position of node 45 (blade 2, node 16), m
        135    1.312E+02                                 F               0         Z-component position of node 45 (blade 2, node 16), m
        136   -9.278E+00                                 F               0         X-component position of node 46 (blade 2, node 17), m
        137   -8.399E+01                                 F               0         Y-component position of node 46 (blade 2, node 17), m
        138    1.302E+02                                 F               0         Z-component position of node 46 (blade 2, node 17), m
        139   -9.352E+00                                 F               0         X-component position of node 47 (blade 2, node 18), m
        140   -8.774E+01                                 F               0         Y-component position of node 47 (blade 2, node 18), m
        141    1.293E+02                                 F               0         Z-component position of node 47 (blade 2, node 18), m
        142   -9.426E+00                                 F               0         X-component position of node 48 (blade 2, node 19), m
        143   -9.149E+01                                 F               0         Y-component position of node 48 (blade 2, node 19), m
        144    1.283E+02                                 F               0         Z-component position of node 48 (blade 2, node 19), m
        145   -9.500E+00                                 F               0         X-component position of node 49 (blade 2, node 20), m
        146   -9.524E+01                                 F               0         Y-component position of node 49 (blade 2, node 20), m
        147    1.274E+02                                 F               0         Z-component position of node 49 (blade 2, node 20), m
        148   -9.574E+00                                 F               0         X-component position of node 50 (blade 2, node 21), m
        149   -9.898E+01                                 F               0         Y-component position of node 50 (blade 2, node 21), m
        150    1.264E+02                                 F               0         Z-component position of node 50 (blade 2, node 21), m
        151   -9.648E+00                                 F               0         X-component position of node 51 (blade 2, node 22), m
        152   -1.027E+02                                 F               0         Y-component position of node 51 (blade 2, node 22), m
        153    1.255E+02                                 F               0         Z-component position of node 51 (blade 2, node 22), m
        154   -9.722E+00                                 F               0         X-component position of node 52 (blade 2, node 23), m
        155   -1.065E+02                                 F               0         Y-component position of node 52 (blade 2, node 23), m
        156    1.245E+02                                 F               0         Z-component position of node 52 (blade 2, node 23), m
        157   -9.796E+00                                 F               0         X-component position of node 53 (blade 2, node 24), m
        158   -1.102E+02                                 F               0         Y-component position of node 53 (blade 2, node 24), m
        159    1.235E+02                                 F               0         Z-component position of node 53 (blade 2, node 24), m
        160   -9.870E+00                                 F               0         X-component position of node 54 (blade 2, node 25), m
        161   -1.140E+02                                 F               0         Y-component position of node 54 (blade 2, node 25), m
        162    1.226E+02                                 F               0         Z-component position of node 54 (blade 2, node 25), m
        163   -9.944E+00                                 F               0         X-component position of node 55 (blade 2, node 26), m
        164   -1.177E+02                                 F               0         Y-component position of node 55 (blade 2, node 26), m
        165    1.216E+02                                 F               0         Z-component position of node 55 (blade 2, node 26), m
        166   -1.002E+01                                 F               0         X-component position of node 56 (blade 2, node 27), m
        167   -1.215E+02                                 F               0         Y-component position of node 56 (blade 2, node 27), m
        168    1.207E+02                                 F               0         Z-component position of node 56 (blade 2, node 27), m
        169   -1.008E+01                                 F               0         X-component position of node 57 (blade 2, node 28), m
        170   -1.246E+02                                 F               0         Y-component position of node 57 (blade 2, node 28), m
        171    1.199E+02                                 F               0         Z-component position of node 57 (blade 2, node 28), m
        172   -8.314E+00                                 F               0         X-component position of node 58 (blade 3, node 1), m
        173   -3.414E+00                                 F               0         Y-component position of node 58 (blade 3, node 1), m
        174    1.459E+02                                 F               0         Z-component position of node 58 (blade 3, node 1), m
        175   -8.448E+00                                 F               0         X-component position of node 59 (blade 3, node 2), m
        176   -2.482E+00                                 F               0         Y-component position of node 59 (blade 3, node 2), m
        177    1.449E+02                                 F               0         Z-component position of node 59 (blade 3, node 2), m
        178   -1.026E+01                                 F               0         X-component position of node 60 (blade 3, node 3), m
        179    1.020E+01                                 F               0         Y-component position of node 60 (blade 3, node 3), m
        180    1.320E+02                                 F               0         Z-component position of node 60 (blade 3, node 3), m
        181   -1.064E+01                                 F               0         X-component position of node 61 (blade 3, node 4), m
        182    1.290E+01                                 F               0         Y-component position of node 61 (blade 3, node 4), m
        183    1.293E+02                                 F               0         Z-component position of node 61 (blade 3, node 4), m
        184   -1.103E+01                                 F               0         X-component position of node 62 (blade 3, node 5), m
        185    1.560E+01                                 F               0         Y-component position of node 62 (blade 3, node 5), m
        186    1.266E+02                                 F               0         Z-component position of node 62 (blade 3, node 5), m
        187   -1.142E+01                                 F               0         X-component position of node 63 (blade 3, node 6), m
        188    1.831E+01                                 F               0         Y-component position of node 63 (blade 3, node 6), m
        189    1.238E+02                                 F               0         Z-component position of node 63 (blade 3, node 6), m
        190   -1.180E+01                                 F               0         X-component position of node 64 (blade 3, node 7), m
        191    2.101E+01                                 F               0         Y-component position of node 64 (blade 3, node 7), m
        192    1.211E+02                                 F               0         Z-component position of node 64 (blade 3, node 7), m
        193   -1.219E+01                                 F               0         X-component position of node 65 (blade 3, node 8), m
        194    2.371E+01                                 F               0         Y-component position of node 65 (blade 3, node 8), m
        195    1.183E+02                                 F               0         Z-component position of node 65 (blade 3, node 8), m
        196   -1.257E+01                                 F               0         X-component position of node 66 (blade 3, node 9), m
        197    2.641E+01                                 F               0         Y-component position of node 66 (blade 3, node 9), m
        198    1.156E+02                                 F               0         Z-component position of node 66 (blade 3, node 9), m
        199   -1.296E+01                                 F               0         X-component position of node 67 (blade 3, node 10), m
        200    2.911E+01                                 F               0         Y-component position of node 67 (blade 3, node 10), m
        201    1.129E+02                                 F               0         Z-component position of node 67 (blade 3, node 10), m
        202   -1.334E+01                                 F               0         X-component position of node 68 (blade 3, node 11), m
        203    3.182E+01                                 F               0         Y-component position of node 68 (blade 3, node 11), m
        204    1.101E+02                                 F               0         Z-component position of node 68 (blade 3, node 11), m
        205   -1.373E+01                                 F               0         X-component position of node 69 (blade 3, node 12), m
        206    3.452E+01                                 F               0         Y-component position of node 69 (blade 3, node 12), m
        207    1.074E+02                                 F               0         Z-component position of node 69 (blade 3, node 12), m
        208   -1.412E+01                                 F               0         X-component position of node 70 (blade 3, node 13), m
        209    3.722E+01                                 F               0         Y-component position of node 70 (blade 3, node 13), m
        210    1.046E+02                                 F               0         Z-component position of node 70 (blade 3, node 13), m
        211   -1.450E+01                                 F               0         X-component position of node 71 (blade 3, node 14), m