
Linearized model: Predictions were generated on 24-Jan-2024 at 11:24:37 using OpenFAST, compiled as a 64-bit application using single precision at commit v3.5.1
 linked with  NWTC Subroutine Library; ElastoDyn; InflowWind; AeroDyn; ServoDyn; HydroDyn; MAP++ (<1.20.10>, <Oct-20-2023>)

Description from the FAST input file: CCT-9 Campign 4 model. Input files to be run with OpenFAST 3.5.0. GitHub branch from Lu Wang (https://github.com/luwang00/openfast/tree/dev) compiled on March 7, 2023.

Simulation information:
   Simulation time:                   506.1750 s
   Rotor Speed:                         0.8937 rad/s
   Azimuth:                             0.7771 rad
   Wind Speed:                         10.0000 m/s
   Number of continuous states:        12
   Number of discrete states:           0
   Number of constraint states:         0
   Number of inputs:                 1890
   Number of outputs:                  14
   Jacobians included in this file?    No

Order of continuous states:
   Row/Column Operating Point                     Rotating Frame? Derivative Order Description
   ---------- ---------------                     --------------- ---------------- -----------
          1    7.511E-03                                 F               2         Platform yaw rotation DOF (internal DOF index = DOF_Y), rad
          2    3.854E-01                                 F               2         1st tower fore-aft bending mode DOF (internal DOF index = DOF_TFA1), m
          3    1.676E-01                                 F               2         1st tower side-to-side bending mode DOF (internal DOF index = DOF_TSS1), m
          4    1.285E-03                                 F               2         2nd tower fore-aft bending mode DOF (internal DOF index = DOF_TFA2), m
          5    7.531E-05                                 F               2         2nd tower side-to-side bending mode DOF (internal DOF index = DOF_TSS2), m
          6    5.490E+00                                 F               2         Variable speed generator DOF (internal DOF index = DOF_GeAz), rad
          7   -3.779E-06                                 F               2         First time derivative of Platform yaw rotation DOF (internal DOF index = DOF_Y), rad/s
          8    4.010E-04                                 F               2         First time derivative of 1st tower fore-aft bending mode DOF (internal DOF index = DOF_TFA1), m/s
          9    2.736E-03                                 F               2         First time derivative of 1st tower side-to-side bending mode DOF (internal DOF index = DOF_TSS1), m/s
         10   -1.754E-06                                 F               2         First time derivative of 2nd tower fore-aft bending mode DOF (internal DOF index = DOF_TFA2), m/s
         11   -6.748E-07                                 F               2         First time derivative of 2nd tower side-to-side bending mode DOF (internal DOF index = DOF_TSS2), m/s
         12    8.937E-01                                 F               2         First time derivative of Variable speed generator DOF (internal DOF index = DOF_GeAz), rad/s

Order of continuous state derivatives:
   Row/Column Operating Point                     Rotating Frame? Derivative Order Description
   ---------- ---------------                     --------------- ---------------- -----------
          1   -3.779E-06                                 F               2         First time derivative of Platform yaw rotation DOF (internal DOF index = DOF_Y), rad/s
          2    4.010E-04                                 F               2         First time derivative of 1st tower fore-aft bending mode DOF (internal DOF index = DOF_TFA1), m/s
          3    2.736E-03                                 F               2         First time derivative of 1st tower side-to-side bending mode DOF (internal DOF index = DOF_TSS1), m/s
          4   -1.754E-06                                 F               2         First time derivative of 2nd tower fore-aft bending mode DOF (internal DOF index = DOF_TFA2), m/s
          5   -6.748E-07                                 F               2         First time derivative of 2nd tower side-to-side bending mode DOF (internal DOF index = DOF_TSS2), m/s
          6    8.937E-01                                 F               2         First time derivative of Variable speed generator DOF (internal DOF index = DOF_GeAz), rad/s
          7   -4.486E-07                                 F               2         First time derivative of First time derivative of Platform yaw rotation DOF (internal DOF index = DOF_Y), rad/s/s
          8   -9.312E-04                                 F               2         First time derivative of First time derivative of 1st tower fore-aft bending mode DOF (internal DOF index = DOF_TFA1), m/s/s
          9    8.020E-04                                 F               2         First time derivative of First time derivative of 1st tower side-to-side bending mode DOF (internal DOF index = DOF_TSS1), m/s/s
         10    2.143E-06                                 F               2         First time derivative of First time derivative of 2nd tower fore-aft bending mode DOF (internal DOF index = DOF_TFA2), m/s/s
         11   -1.360E-07                                 F               2         First time derivative of First time derivative of 2nd tower side-to-side bending mode DOF (internal DOF index = DOF_TSS2), m/s/s
         12   -5.094E-05                                 F               2         First time derivative of First time derivative of Variable speed generator DOF (internal DOF index = DOF_GeAz), rad/s/s

Order of inputs:
     Column   Operating Point                     Rotating Frame? Derivative Order Description
   ---------- ---------------                     --------------- ---------------- -----------
          1    8.561E+01                                 F               0         Blade 1 X force, node 1, N
          2    7.043E+01                                 F               0         Blade 1 Y force, node 1, N
          3    6.424E+01                                 F               0         Blade 1 Z force, node 1, N
          4    3.407E+02                                 F               0         Blade 1 X force, node 2, N
          5    1.305E+02                                 F               0         Blade 1 Y force, node 2, N
          6    9.320E+01                                 F               0         Blade 1 Z force, node 2, N
          7    4.253E+02                                 F               0         Blade 1 X force, node 3, N
          8    8.891E+01                                 F               0         Blade 1 Y force, node 3, N
          9    3.605E+01                                 F               0         Blade 1 Z force, node 3, N
         10    5.463E+02                                 F               0         Blade 1 X force, node 4, N
         11    6.365E+01                                 F               0         Blade 1 Y force, node 4, N
         12   -8.548E+00                                 F               0         Blade 1 Z force, node 4, N
         13    6.674E+02                                 F               0         Blade 1 X force, node 5, N
         14    3.839E+01                                 F               0         Blade 1 Y force, node 5, N
         15   -5.314E+01                                 F               0         Blade 1 Z force, node 5, N
         16    7.884E+02                                 F               0         Blade 1 X force, node 6, N
         17    1.313E+01                                 F               0         Blade 1 Y force, node 6, N
         18   -9.774E+01                                 F               0         Blade 1 Z force, node 6, N
         19    9.094E+02                                 F               0         Blade 1 X force, node 7, N
         20   -1.213E+01                                 F               0         Blade 1 Y force, node 7, N
         21   -1.423E+02                                 F               0         Blade 1 Z force, node 7, N
         22    1.030E+03                                 F               0         Blade 1 X force, node 8, N
         23   -3.739E+01                                 F               0         Blade 1 Y force, node 8, N
         24   -1.869E+02                                 F               0         Blade 1 Z force, node 8, N
         25    1.152E+03                                 F               0         Blade 1 X force, node 9, N
         26   -6.265E+01                                 F               0         Blade 1 Y force, node 9, N
         27   -2.315E+02                                 F               0         Blade 1 Z force, node 9, N
         28    1.273E+03                                 F               0         Blade 1 X force, node 10, N
         29   -8.791E+01                                 F               0         Blade 1 Y force, node 10, N
         30   -2.761E+02                                 F               0         Blade 1 Z force, node 10, N
         31    1.394E+03                                 F               0         Blade 1 X force, node 11, N
         32   -1.132E+02                                 F               0         Blade 1 Y force, node 11, N
         33   -3.207E+02                                 F               0         Blade 1 Z force, node 11, N
         34    1.515E+03                                 F               0         Blade 1 X force, node 12, N
         35   -1.384E+02                                 F               0         Blade 1 Y force, node 12, N
         36   -3.653E+02                                 F               0         Blade 1 Z force, node 12, N
         37    1.636E+03                                 F               0         Blade 1 X force, node 13, N
         38   -1.637E+02                                 F               0         Blade 1 Y force, node 13, N
         39   -4.099E+02                                 F               0         Blade 1 Z force, node 13, N
         40    1.757E+03                                 F               0         Blade 1 X force, node 14, N
         41   -1.890E+02                                 F               0         Blade 1 Y force, node 14, N
         42   -4.545E+02                                 F               0         Blade 1 Z force, node 14, N
         43    1.878E+03                                 F               0         Blade 1 X force, node 15, N
         44   -2.142E+02                                 F               0         Blade 1 Y force, node 15, N
         45   -4.991E+02                                 F               0         Blade 1 Z force, node 15, N
         46    1.999E+03                                 F               0         Blade 1 X force, node 16, N
         47   -2.395E+02                                 F               0         Blade 1 Y force, node 16, N
         48   -5.437E+02                                 F               0         Blade 1 Z force, node 16, N
         49    2.460E+03                                 F               0         Blade 1 X force, node 17, N
         50   -3.056E+02                                 F               0         Blade 1 Y force, node 17, N
         51   -6.810E+02                                 F               0         Blade 1 Z force, node 17, N
         52    1.895E+03                                 F               0         Blade 1 X force, node 18, N
         53   -2.265E+02                                 F               0         Blade 1 Y force, node 18, N
         54   -5.149E+02                                 F               0         Blade 1 Z force, node 18, N
         55    2.349E+03                                 F               0         Blade 1 X force, node 19, N
         56   -2.642E+02                                 F               0         Blade 1 Y force, node 19, N
         57   -6.203E+02                                 F               0         Blade 1 Z force, node 19, N
         58    2.021E+03                                 F               0         Blade 1 X force, node 20, N
         59   -2.144E+02                                 F               0         Blade 1 Y force, node 20, N
         60   -5.197E+02                                 F               0         Blade 1 Z force, node 20, N
         61    3.016E+03                                 F               0         Blade 1 X force, node 21, N
         62   -2.985E+02                                 F               0         Blade 1 Y force, node 21, N
         63   -7.522E+02                                 F               0         Blade 1 Z force, node 21, N
         64    2.688E+03                                 F               0         Blade 1 X force, node 22, N
         65   -2.477E+02                                 F               0         Blade 1 Y force, node 22, N
         66   -6.505E+02                                 F               0         Blade 1 Z force, node 22, N
         67    2.784E+03                                 F               0         Blade 1 X force, node 23, N
         68   -2.401E+02                                 F               0         Blade 1 Y force, node 23, N
         69   -6.560E+02                                 F               0         Blade 1 Z force, node 23, N
         70    2.930E+03                                 F               0         Blade 1 X force, node 24, N
         71   -2.366E+02                                 F               0         Blade 1 Y force, node 24, N
         72   -6.729E+02                                 F               0         Blade 1 Z force, node 24, N
         73    3.025E+03                                 F               0         Blade 1 X force, node 25, N
         74   -2.284E+02                                 F               0         Blade 1 Y force, node 25, N
         75   -6.775E+02                                 F               0         Blade 1 Z force, node 25, N
         76    3.136E+03                                 F               0         Blade 1 X force, node 26, N
         77   -2.215E+02                                 F               0         Blade 1 Y force, node 26, N
         78   -6.857E+02                                 F               0         Blade 1 Z force, node 26, N
         79    3.784E+03                                 F               0         Blade 1 X force, node 27, N
         80   -2.488E+02                                 F               0         Blade 1 Y force, node 27, N
         81   -8.074E+02                                 F               0         Blade 1 Z force, node 27, N
         82    2.823E+03                                 F               0         Blade 1 X force, node 28, N
         83   -1.728E+02                                 F               0         Blade 1 Y force, node 28, N
         84   -5.885E+02                                 F               0         Blade 1 Z force, node 28, N
         85    3.471E+03                                 F               0         Blade 1 X force, node 29, N
         86   -1.998E+02                                 F               0         Blade 1 Y force, node 29, N
         87   -7.097E+02                                 F               0         Blade 1 Z force, node 29, N
         88    2.967E+03                                 F               0         Blade 1 X force, node 30, N
         89   -1.606E+02                                 F               0         Blade 1 Y force, node 30, N
         90   -5.956E+02                                 F               0         Blade 1 Z force, node 30, N
         91    4.308E+03                                 F               0         Blade 1 X force, node 31, N
         92   -2.166E+02                                 F               0         Blade 1 Y force, node 31, N
         93   -8.469E+02                                 F               0         Blade 1 Z force, node 31, N
         94    3.804E+03                                 F               0         Blade 1 X force, node 32, N
         95   -1.770E+02                                 F               0         Blade 1 Y force, node 32, N
         96   -7.323E+02                                 F               0         Blade 1 Z force, node 32, N
         97    3.914E+03                                 F               0         Blade 1 X force, node 33, N
         98   -1.692E+02                                 F               0         Blade 1 Y force, node 33, N
         99   -7.394E+02                                 F               0         Blade 1 Z force, node 33, N
        100    4.025E+03                                 F               0         Blade 1 X force, node 34, N
        101   -1.613E+02                                 F               0         Blade 1 Y force, node 34, N
        102   -7.467E+02                                 F               0         Blade 1 Z force, node 34, N
        103    4.136E+03                                 F               0         Blade 1 X force, node 35, N
        104   -1.533E+02                                 F               0         Blade 1 Y force, node 35, N
        105   -7.537E+02                                 F               0         Blade 1 Z force, node 35, N
        106    4.245E+03                                 F               0         Blade 1 X force, node 36, N
        107   -1.452E+02                                 F               0         Blade 1 Y force, node 36, N
        108   -7.605E+02                                 F               0         Blade 1 Z force, node 36, N
        109    5.097E+03                                 F               0         Blade 1 X force, node 37, N
        110   -1.596E+02                                 F               0         Blade 1 Y force, node 37, N
        111   -8.971E+02                                 F               0         Blade 1 Z force, node 37, N
        112    3.725E+03                                 F               0         Blade 1 X force, node 38, N
        113   -1.065E+02                                 F               0         Blade 1 Y force, node 38, N
        114   -6.445E+02                                 F               0         Blade 1 Z force, node 38, N
        115    4.577E+03                                 F               0         Blade 1 X force, node 39, N
        116   -1.207E+02                                 F               0         Blade 1 Y force, node 39, N
        117   -7.811E+02                                 F               0         Blade 1 Z force, node 39, N
        118    3.913E+03                                 F               0         Blade 1 X force, node 40, N
        119   -9.487E+01                                 F               0         Blade 1 Y force, node 40, N
        120   -6.587E+02                                 F               0         Blade 1 Z force, node 40, N
        121    5.574E+03                                 F               0         Blade 1 X force, node 41, N
        122   -1.217E+02                                 F               0         Blade 1 Y force, node 41, N
        123   -9.237E+02                                 F               0         Blade 1 Z force, node 41, N
        124    4.907E+03                                 F               0         Blade 1 X force, node 42, N
        125   -9.565E+01                                 F               0         Blade 1 Y force, node 42, N
        126   -8.008E+02                                 F               0         Blade 1 Z force, node 42, N
        127    5.016E+03                                 F               0         Blade 1 X force, node 43, N
        128   -8.714E+01                                 F               0         Blade 1 Y force, node 43, N
        129   -8.071E+02                                 F               0         Blade 1 Z force, node 43, N
        130    5.153E+03                                 F               0         Blade 1 X force, node 44, N
        131   -7.901E+01                                 F               0         Blade 1 Y force, node 44, N
        132   -8.176E+02                                 F               0         Blade 1 Z force, node 44, N
        133    5.207E+03                                 F               0         Blade 1 X force, node 45, N
        134   -6.964E+01                                 F               0         Blade 1 Y force, node 45, N
        135   -8.152E+02                                 F               0         Blade 1 Z force, node 45, N
        136    5.344E+03                                 F               0         Blade 1 X force, node 46, N
        137   -6.144E+01                                 F               0         Blade 1 Y force, node 46, N
        138   -8.257E+02                                 F               0         Blade 1 Z force, node 46, N
        139    6.410E+03                                 F               0         Blade 1 X force, node 47, N
        140   -6.136E+01                                 F               0         Blade 1 Y force, node 47, N
        141   -9.771E+02                                 F               0         Blade 1 Z force, node 47, N
        142    4.604E+03                                 F               0         Blade 1 X force, node 48, N
        143   -3.564E+01                                 F               0         Blade 1 Y force, node 48, N
        144   -6.926E+02                                 F               0         Blade 1 Z force, node 48, N
        145    5.669E+03                                 F               0         Blade 1 X force, node 49, N
        146   -3.543E+01                                 F               0         Blade 1 Y force, node 49, N
        147   -8.437E+02                                 F               0         Blade 1 Z force, node 49, N
        148    4.858E+03                                 F               0         Blade 1 X force, node 50, N
        149   -2.327E+01                                 F               0         Blade 1 Y force, node 50, N
        150   -7.153E+02                                 F               0         Blade 1 Z force, node 50, N
        151    6.806E+03                                 F               0         Blade 1 X force, node 51, N
        152   -2.141E+01                                 F               0         Blade 1 Y force, node 51, N
        153   -9.900E+02                                 F               0         Blade 1 Z force, node 51, N
        154    5.996E+03                                 F               0         Blade 1 X force, node 52, N
        155   -9.271E+00                                 F               0         Blade 1 Y force, node 52, N
        156   -8.618E+02                                 F               0         Blade 1 Z force, node 52, N
        157    6.106E+03                                 F               0         Blade 1 X force, node 53, N
        158   -5.657E-01                                 F               0         Blade 1 Y force, node 53, N
        159   -8.680E+02                                 F               0         Blade 1 Z force, node 53, N
        160    6.284E+03                                 F               0         Blade 1 X force, node 54, N
        161    8.277E+00                                 F               0         Blade 1 Y force, node 54, N
        162   -8.837E+02                                 F               0         Blade 1 Z force, node 54, N
        163    6.257E+03                                 F               0         Blade 1 X force, node 55, N
        164    1.682E+01                                 F               0         Blade 1 Y force, node 55, N
        165   -8.705E+02                                 F               0         Blade 1 Z force, node 55, N
        166    6.434E+03                                 F               0         Blade 1 X force, node 56, N
        167    2.576E+01                                 F               0         Blade 1 Y force, node 56, N
        168   -8.860E+02                                 F               0         Blade 1 Z force, node 56, N
        169    7.728E+03                                 F               0         Blade 1 X force, node 57, N
        170    4.150E+01                                 F               0         Blade 1 Y force, node 57, N
        171   -1.053E+03                                 F               0         Blade 1 Z force, node 57, N
        172    5.467E+03                                 F               0         Blade 1 X force, node 58, N
        173    3.648E+01                                 F               0         Blade 1 Y force, node 58, N
        174   -7.370E+02                                 F               0         Blade 1 Z force, node 58, N
        175    6.761E+03                                 F               0         Blade 1 X force, node 59, N
        176    5.228E+01                                 F               0         Blade 1 Y force, node 59, N
        177   -9.037E+02                                 F               0         Blade 1 Z force, node 59, N
        178    5.818E+03                                 F               0         Blade 1 X force, node 60, N
        179    5.110E+01                                 F               0         Blade 1 Y force, node 60, N
        180   -7.710E+02                                 F               0         Blade 1 Z force, node 60, N
        181    8.031E+03                                 F               0         Blade 1 X force, node 61, N
        182    8.010E+01                                 F               0         Blade 1 Y force, node 61, N
        183   -1.054E+03                                 F               0         Blade 1 Z force, node 61, N
        184    7.086E+03                                 F               0         Blade 1 X force, node 62, N
        185    7.904E+01                                 F               0         Blade 1 Y force, node 62, N
        186   -9.207E+02                                 F               0         Blade 1 Z force, node 62, N
        187    7.192E+03                                 F               0         Blade 1 X force, node 63, N
        188    8.803E+01                                 F               0         Blade 1 Y force, node 63, N
        189   -9.261E+02                                 F               0         Blade 1 Z force, node 63, N
        190    7.422E+03                                 F               0         Blade 1 X force, node 64, N
        191    9.867E+01                                 F               0         Blade 1 Y force, node 64, N
        192   -9.471E+02                                 F               0         Blade 1 Z force, node 64, N
        193    7.287E+03                                 F               0         Blade 1 X force, node 65, N
        194    1.043E+02                                 F               0         Blade 1 Y force, node 65, N
        195   -9.219E+02                                 F               0         Blade 1 Z force, node 65, N
        196    7.519E+03                                 F               0         Blade 1 X force, node 66, N
        197    1.148E+02                                 F               0         Blade 1 Y force, node 66, N
        198   -9.435E+02                                 F               0         Blade 1 Z force, node 66, N
        199    9.051E+03                                 F               0         Blade 1 X force, node 67, N
        200    1.474E+02                                 F               0         Blade 1 Y force, node 67, N
        201   -1.126E+03                                 F               0         Blade 1 Z force, node 67, N
        202    6.317E+03                                 F               0         Blade 1 X force, node 68, N
        203    1.090E+02                                 F               0         Blade 1 Y force, node 68, N
        204   -7.790E+02                                 F               0         Blade 1 Z force, node 68, N
        205    7.847E+03                                 F               0         Blade 1 X force, node 69, N
        206    1.417E+02                                 F               0         Blade 1 Y force, node 69, N
        207   -9.608E+02                                 F               0         Blade 1 Z force, node 69, N
        208    6.784E+03                                 F               0         Blade 1 X force, node 70, N
        209    1.280E+02                                 F               0         Blade 1 Y force, node 70, N
        210   -8.248E+02                                 F               0         Blade 1 Z force, node 70, N
        211    9.233E+03                                 F               0         Blade 1 X force, node 71, N
        212    1.827E+02                                 F               0         Blade 1 Y force, node 71, N
        213   -1.113E+03                                 F               0         Blade 1 Z force, node 71, N
        214    8.167E+03                                 F               0         Blade 1 X force, node 72, N
        215    1.691E+02                                 F               0         Blade 1 Y force, node 72, N
        216   -9.765E+02                                 F               0         Blade 1 Z force, node 72, N