
Linearized model: Predictions were generated on 24-Jan-2024 at 11:24:37 using OpenFAST, compiled as a 64-bit application using single precision at commit v3.5.1
 linked with  NWTC Subroutine Library; ElastoDyn; InflowWind; AeroDyn; ServoDyn; HydroDyn; MAP++ (<1.20.10>, <Oct-20-2023>)

Description from the FAST input file: CCT-9 Campign 4 model. Input files to be run with OpenFAST 3.5.0. GitHub branch from Lu Wang (https://github.com/luwang00/openfast/tree/dev) compiled on March 7, 2023.

Simulation information:
   Simulation time:                   504.7000 s
   Rotor Speed:                         0.8939 rad/s
   Azimuth:                             5.7420 rad
   Wind Speed:                         10.0000 m/s
   Number of continuous states:        12
   Number of discrete states:           0
   Number of constraint states:         0
   Number of inputs:                 1890
   Number of outputs:                  14
   Jacobians included in this file?    No

Order of continuous states:
   Row/Column Operating Point                     Rotating Frame? Derivative Order Description
   ---------- ---------------                     --------------- ---------------- -----------
          1    7.515E-03                                 F               2         Platform yaw rotation DOF (internal DOF index = DOF_Y), rad
          2    3.842E-01                                 F               2         1st tower fore-aft bending mode DOF (internal DOF index = DOF_TFA1), m
          3    1.651E-01                                 F               2         1st tower side-to-side bending mode DOF (internal DOF index = DOF_TSS1), m
          4    1.288E-03                                 F               2         2nd tower fore-aft bending mode DOF (internal DOF index = DOF_TFA2), m
          5    7.598E-05                                 F               2         2nd tower side-to-side bending mode DOF (internal DOF index = DOF_TSS2), m
          6    4.171E+00                                 F               2         Variable speed generator DOF (internal DOF index = DOF_GeAz), rad
          7   -1.244E-06                                 F               2         First time derivative of Platform yaw rotation DOF (internal DOF index = DOF_Y), rad/s
          8    8.222E-04                                 F               2         First time derivative of 1st tower fore-aft bending mode DOF (internal DOF index = DOF_TFA1), m/s
          9    3.271E-04                                 F               2         First time derivative of 1st tower side-to-side bending mode DOF (internal DOF index = DOF_TSS1), m/s
         10   -3.774E-06                                 F               2         First time derivative of 2nd tower fore-aft bending mode DOF (internal DOF index = DOF_TFA2), m/s
         11   -1.883E-07                                 F               2         First time derivative of 2nd tower side-to-side bending mode DOF (internal DOF index = DOF_TSS2), m/s
         12    8.939E-01                                 F               2         First time derivative of Variable speed generator DOF (internal DOF index = DOF_GeAz), rad/s

Order of continuous state derivatives:
   Row/Column Operating Point                     Rotating Frame? Derivative Order Description
   ---------- ---------------                     --------------- ---------------- -----------
          1   -1.244E-06                                 F               2         First time derivative of Platform yaw rotation DOF (internal DOF index = DOF_Y), rad/s
          2    8.222E-04                                 F               2         First time derivative of 1st tower fore-aft bending mode DOF (internal DOF index = DOF_TFA1), m/s
          3    3.271E-04                                 F               2         First time derivative of 1st tower side-to-side bending mode DOF (internal DOF index = DOF_TSS1), m/s
          4   -3.774E-06                                 F               2         First time derivative of 2nd tower fore-aft bending mode DOF (internal DOF index = DOF_TFA2), m/s
          5   -1.883E-07                                 F               2         First time derivative of 2nd tower side-to-side bending mode DOF (internal DOF index = DOF_TSS2), m/s
          6    8.939E-01                                 F               2         First time derivative of Variable speed generator DOF (internal DOF index = DOF_GeAz), rad/s
          7   -3.821E-06                                 F               2         First time derivative of First time derivative of Platform yaw rotation DOF (internal DOF index = DOF_Y), rad/s/s
          8    5.082E-04                                 F               2         First time derivative of First time derivative of 1st tower fore-aft bending mode DOF (internal DOF index = DOF_TFA1), m/s/s
          9    2.552E-03                                 F               2         First time derivative of First time derivative of 1st tower side-to-side bending mode DOF (internal DOF index = DOF_TSS1), m/s/s
         10    8.441E-06                                 F               2         First time derivative of First time derivative of 2nd tower fore-aft bending mode DOF (internal DOF index = DOF_TFA2), m/s/s
         11   -1.598E-06                                 F               2         First time derivative of First time derivative of 2nd tower side-to-side bending mode DOF (internal DOF index = DOF_TSS2), m/s/s
         12   -2.175E-04                                 F               2         First time derivative of First time derivative of Variable speed generator DOF (internal DOF index = DOF_GeAz), rad/s/s

Order of inputs:
     Column   Operating Point                     Rotating Frame? Derivative Order Description
   ---------- ---------------                     --------------- ---------------- -----------
          1    6.781E+01                                 F               0         Blade 1 X force, node 1, N
          2    5.824E+01                                 F               0         Blade 1 Y force, node 1, N
          3   -4.004E+01                                 F               0         Blade 1 Z force, node 1, N
          4    3.041E+02                                 F               0         Blade 1 X force, node 2, N
          5    1.167E+02                                 F               0         Blade 1 Y force, node 2, N
          6   -1.006E+02                                 F               0         Blade 1 Z force, node 2, N
          7    4.104E+02                                 F               0         Blade 1 X force, node 3, N
          8    6.567E+01                                 F               0         Blade 1 Y force, node 3, N
          9   -8.556E+01                                 F               0         Blade 1 Z force, node 3, N
         10    5.491E+02                                 F               0         Blade 1 X force, node 4, N
         11    2.837E+01                                 F               0         Blade 1 Y force, node 4, N
         12   -8.195E+01                                 F               0         Blade 1 Z force, node 4, N
         13    6.877E+02                                 F               0         Blade 1 X force, node 5, N
         14   -8.936E+00                                 F               0         Blade 1 Y force, node 5, N
         15   -7.835E+01                                 F               0         Blade 1 Z force, node 5, N
         16    8.263E+02                                 F               0         Blade 1 X force, node 6, N
         17   -4.624E+01                                 F               0         Blade 1 Y force, node 6, N
         18   -7.474E+01                                 F               0         Blade 1 Z force, node 6, N
         19    9.650E+02                                 F               0         Blade 1 X force, node 7, N
         20   -8.354E+01                                 F               0         Blade 1 Y force, node 7, N
         21   -7.113E+01                                 F               0         Blade 1 Z force, node 7, N
         22    1.104E+03                                 F               0         Blade 1 X force, node 8, N
         23   -1.208E+02                                 F               0         Blade 1 Y force, node 8, N
         24   -6.752E+01                                 F               0         Blade 1 Z force, node 8, N
         25    1.242E+03                                 F               0         Blade 1 X force, node 9, N
         26   -1.581E+02                                 F               0         Blade 1 Y force, node 9, N
         27   -6.392E+01                                 F               0         Blade 1 Z force, node 9, N
         28    1.381E+03                                 F               0         Blade 1 X force, node 10, N
         29   -1.954E+02                                 F               0         Blade 1 Y force, node 10, N
         30   -6.031E+01                                 F               0         Blade 1 Z force, node 10, N
         31    1.520E+03                                 F               0         Blade 1 X force, node 11, N
         32   -2.327E+02                                 F               0         Blade 1 Y force, node 11, N
         33   -5.670E+01                                 F               0         Blade 1 Z force, node 11, N
         34    1.658E+03                                 F               0         Blade 1 X force, node 12, N
         35   -2.700E+02                                 F               0         Blade 1 Y force, node 12, N
         36   -5.310E+01                                 F               0         Blade 1 Z force, node 12, N
         37    1.797E+03                                 F               0         Blade 1 X force, node 13, N
         38   -3.073E+02                                 F               0         Blade 1 Y force, node 13, N
         39   -4.949E+01                                 F               0         Blade 1 Z force, node 13, N
         40    1.935E+03                                 F               0         Blade 1 X force, node 14, N
         41   -3.446E+02                                 F               0         Blade 1 Y force, node 14, N
         42   -4.588E+01                                 F               0         Blade 1 Z force, node 14, N
         43    2.074E+03                                 F               0         Blade 1 X force, node 15, N
         44   -3.820E+02                                 F               0         Blade 1 Y force, node 15, N
         45   -4.228E+01                                 F               0         Blade 1 Z force, node 15, N
         46    2.213E+03                                 F               0         Blade 1 X force, node 16, N
         47   -4.193E+02                                 F               0         Blade 1 Y force, node 16, N
         48   -3.867E+01                                 F               0         Blade 1 Z force, node 16, N
         49    2.727E+03                                 F               0         Blade 1 X force, node 17, N
         50   -5.271E+02                                 F               0         Blade 1 Y force, node 17, N
         51   -4.203E+01                                 F               0         Blade 1 Z force, node 17, N
         52    2.090E+03                                 F               0         Blade 1 X force, node 18, N
         53   -3.882E+02                                 F               0         Blade 1 Y force, node 18, N
         54   -4.075E+01                                 F               0         Blade 1 Z force, node 18, N
         55    2.574E+03                                 F               0         Blade 1 X force, node 19, N
         56   -4.517E+02                                 F               0         Blade 1 Y force, node 19, N
         57   -6.464E+01                                 F               0         Blade 1 Z force, node 19, N
         58    2.202E+03                                 F               0         Blade 1 X force, node 20, N
         59   -3.657E+02                                 F               0         Blade 1 Y force, node 20, N
         60   -6.664E+01                                 F               0         Blade 1 Z force, node 20, N
         61    3.264E+03                                 F               0         Blade 1 X force, node 21, N
         62   -5.081E+02                                 F               0         Blade 1 Y force, node 21, N
         63   -1.174E+02                                 F               0         Blade 1 Z force, node 21, N
         64    2.892E+03                                 F               0         Blade 1 X force, node 22, N
         65   -4.215E+02                                 F               0         Blade 1 Y force, node 22, N
         66   -1.196E+02                                 F               0         Blade 1 Z force, node 22, N
         67    2.980E+03                                 F               0         Blade 1 X force, node 23, N
         68   -4.087E+02                                 F               0         Blade 1 Y force, node 23, N
         69   -1.373E+02                                 F               0         Blade 1 Z force, node 23, N
         70    3.121E+03                                 F               0         Blade 1 X force, node 24, N
         71   -4.029E+02                                 F               0         Blade 1 Y force, node 24, N
         72   -1.575E+02                                 F               0         Blade 1 Z force, node 24, N
         73    3.207E+03                                 F               0         Blade 1 X force, node 25, N
         74   -3.897E+02                                 F               0         Blade 1 Y force, node 25, N
         75   -1.752E+02                                 F               0         Blade 1 Z force, node 25, N
         76    3.312E+03                                 F               0         Blade 1 X force, node 26, N
         77   -3.788E+02                                 F               0         Blade 1 Y force, node 26, N
         78   -1.938E+02                                 F               0         Blade 1 Z force, node 26, N
         79    3.979E+03                                 F               0         Blade 1 X force, node 27, N
         80   -4.269E+02                                 F               0         Blade 1 Y force, node 27, N
         81   -2.483E+02                                 F               0         Blade 1 Z force, node 27, N
         82    2.957E+03                                 F               0         Blade 1 X force, node 28, N
         83   -2.978E+02                                 F               0         Blade 1 Y force, node 28, N
         84   -1.952E+02                                 F               0         Blade 1 Z force, node 28, N
         85    3.625E+03                                 F               0         Blade 1 X force, node 29, N
         86   -3.458E+02                                 F               0         Blade 1 Y force, node 29, N
         87   -2.497E+02                                 F               0         Blade 1 Z force, node 29, N
         88    3.090E+03                                 F               0         Blade 1 X force, node 30, N
         89   -2.792E+02                                 F               0         Blade 1 Y force, node 30, N
         90   -2.213E+02                                 F               0         Blade 1 Z force, node 30, N
         91    4.473E+03                                 F               0         Blade 1 X force, node 31, N
         92   -3.790E+02                                 F               0         Blade 1 Y force, node 31, N
         93   -3.342E+02                                 F               0         Blade 1 Z force, node 31, N
         94    3.937E+03                                 F               0         Blade 1 X force, node 32, N
         95   -3.123E+02                                 F               0         Blade 1 Y force, node 32, N
         96   -3.058E+02                                 F               0         Blade 1 Z force, node 32, N
         97    4.041E+03                                 F               0         Blade 1 X force, node 33, N
         98   -3.010E+02                                 F               0         Blade 1 Y force, node 33, N
         99   -3.245E+02                                 F               0         Blade 1 Z force, node 33, N
        100    4.145E+03                                 F               0         Blade 1 X force, node 34, N
        101   -2.898E+02                                 F               0         Blade 1 Y force, node 34, N
        102   -3.433E+02                                 F               0         Blade 1 Z force, node 34, N
        103    4.249E+03                                 F               0         Blade 1 X force, node 35, N
        104   -2.785E+02                                 F               0         Blade 1 Y force, node 35, N
        105   -3.621E+02                                 F               0         Blade 1 Z force, node 35, N
        106    4.353E+03                                 F               0         Blade 1 X force, node 36, N
        107   -2.671E+02                                 F               0         Blade 1 Y force, node 36, N
        108   -3.808E+02                                 F               0         Blade 1 Z force, node 36, N
        109    5.214E+03                                 F               0         Blade 1 X force, node 37, N
        110   -2.980E+02                                 F               0         Blade 1 Y force, node 37, N
        111   -4.682E+02                                 F               0         Blade 1 Z force, node 37, N
        112    3.803E+03                                 F               0         Blade 1 X force, node 38, N
        113   -2.023E+02                                 F               0         Blade 1 Y force, node 38, N
        114   -3.497E+02                                 F               0         Blade 1 Z force, node 38, N
        115    4.666E+03                                 F               0         Blade 1 X force, node 39, N
        116   -2.332E+02                                 F               0         Blade 1 Y force, node 39, N
        117   -4.372E+02                                 F               0         Blade 1 Z force, node 39, N
        118    3.983E+03                                 F               0         Blade 1 X force, node 40, N
        119   -1.867E+02                                 F               0         Blade 1 Y force, node 40, N
        120   -3.799E+02                                 F               0         Blade 1 Z force, node 40, N
        121    5.663E+03                                 F               0         Blade 1 X force, node 41, N
        122   -2.458E+02                                 F               0         Blade 1 Y force, node 41, N
        123   -5.510E+02                                 F               0         Blade 1 Z force, node 41, N
        124    4.978E+03                                 F               0         Blade 1 X force, node 42, N
        125   -1.991E+02                                 F               0         Blade 1 Y force, node 42, N
        126   -4.936E+02                                 F               0         Blade 1 Z force, node 42, N
        127    5.081E+03                                 F               0         Blade 1 X force, node 43, N
        128   -1.877E+02                                 F               0         Blade 1 Y force, node 43, N
        129   -5.124E+02                                 F               0         Blade 1 Z force, node 43, N
        130    5.212E+03                                 F               0         Blade 1 X force, node 44, N
        131   -1.771E+02                                 F               0         Blade 1 Y force, node 44, N
        132   -5.340E+02                                 F               0         Blade 1 Z force, node 44, N
        133    5.261E+03                                 F               0         Blade 1 X force, node 45, N
        134   -1.638E+02                                 F               0         Blade 1 Y force, node 45, N
        135   -5.471E+02                                 F               0         Blade 1 Z force, node 45, N
        136    5.392E+03                                 F               0         Blade 1 X force, node 46, N
        137   -1.533E+02                                 F               0         Blade 1 Y force, node 46, N
        138   -5.687E+02                                 F               0         Blade 1 Z force, node 46, N
        139    6.459E+03                                 F               0         Blade 1 X force, node 47, N
        140   -1.656E+02                                 F               0         Blade 1 Y force, node 47, N
        141   -6.912E+02                                 F               0         Blade 1 Z force, node 47, N
        142    4.634E+03                                 F               0         Blade 1 X force, node 48, N
        143   -1.065E+02                                 F               0         Blade 1 Y force, node 48, N
        144   -5.026E+02                                 F               0         Blade 1 Z force, node 48, N
        145    5.701E+03                                 F               0         Blade 1 X force, node 49, N
        146   -1.188E+02                                 F               0         Blade 1 Y force, node 49, N
        147   -6.250E+02                                 F               0         Blade 1 Z force, node 49, N
        148    4.881E+03                                 F               0         Blade 1 X force, node 50, N
        149   -9.140E+01                                 F               0         Blade 1 Y force, node 50, N
        150   -5.407E+02                                 F               0         Blade 1 Z force, node 50, N
        151    6.831E+03                                 F               0         Blade 1 X force, node 51, N
        152   -1.117E+02                                 F               0         Blade 1 Y force, node 51, N
        153   -7.657E+02                                 F               0         Blade 1 Z force, node 51, N
        154    6.012E+03                                 F               0         Blade 1 X force, node 52, N
        155   -8.439E+01                                 F               0         Blade 1 Y force, node 52, N
        156   -6.815E+02                                 F               0         Blade 1 Z force, node 52, N
        157    6.117E+03                                 F               0         Blade 1 X force, node 53, N
        158   -7.298E+01                                 F               0         Blade 1 Y force, node 53, N
        159   -7.004E+02                                 F               0         Blade 1 Z force, node 53, N
        160    6.290E+03                                 F               0         Blade 1 X force, node 54, N
        161   -6.219E+01                                 F               0         Blade 1 Y force, node 54, N
        162   -7.272E+02                                 F               0         Blade 1 Z force, node 54, N
        163    6.257E+03                                 F               0         Blade 1 X force, node 55, N
        164   -4.947E+01                                 F               0         Blade 1 Y force, node 55, N
        165   -7.302E+02                                 F               0         Blade 1 Z force, node 55, N
        166    6.430E+03                                 F               0         Blade 1 X force, node 56, N
        167   -3.864E+01                                 F               0         Blade 1 Y force, node 56, N
        168   -7.570E+02                                 F               0         Blade 1 Z force, node 56, N
        169    7.716E+03                                 F               0         Blade 1 X force, node 57, N
        170   -3.112E+01                                 F               0         Blade 1 Y force, node 57, N
        171   -9.168E+02                                 F               0         Blade 1 Z force, node 57, N
        172    5.455E+03                                 F               0         Blade 1 X force, node 58, N
        173   -1.174E+01                                 F               0         Blade 1 Y force, node 58, N
        174   -6.538E+02                                 F               0         Blade 1 Z force, node 58, N
        175    6.742E+03                                 F               0         Blade 1 X force, node 59, N
        176   -4.210E+00                                 F               0         Blade 1 Y force, node 59, N
        177   -8.136E+02                                 F               0         Blade 1 Z force, node 59, N
        178    5.798E+03                                 F               0         Blade 1 X force, node 60, N
        179    5.184E+00                                 F               0         Blade 1 Y force, node 60, N
        180   -7.045E+02                                 F               0         Blade 1 Z force, node 60, N
        181    7.998E+03                                 F               0         Blade 1 X force, node 61, N
        182    2.088E+01                                 F               0         Blade 1 Y force, node 61, N
        183   -9.794E+02                                 F               0         Blade 1 Z force, node 61, N
        184    7.052E+03                                 F               0         Blade 1 X force, node 62, N
        185    3.037E+01                                 F               0         Blade 1 Y force, node 62, N
        186   -8.700E+02                                 F               0         Blade 1 Z force, node 62, N
        187    7.154E+03                                 F               0         Blade 1 X force, node 63, N
        188    4.195E+01                                 F               0         Blade 1 Y force, node 63, N
        189   -8.887E+02                                 F               0         Blade 1 Z force, node 63, N
        190    7.378E+03                                 F               0         Blade 1 X force, node 64, N
        191    5.447E+01                                 F               0         Blade 1 Y force, node 64, N
        192   -9.227E+02                                 F               0         Blade 1 Z force, node 64, N
        193    7.240E+03                                 F               0         Blade 1 X force, node 65, N
        194    6.402E+01                                 F               0         Blade 1 Y force, node 65, N
        195   -9.112E+02                                 F               0         Blade 1 Z force, node 65, N
        196    7.467E+03                                 F               0         Blade 1 X force, node 66, N
        197    7.642E+01                                 F               0         Blade 1 Y force, node 66, N
        198   -9.455E+02                                 F               0         Blade 1 Z force, node 66, N
        199    8.984E+03                                 F               0         Blade 1 X force, node 67, N
        200    1.051E+02                                 F               0         Blade 1 Y force, node 67, N
        201   -1.145E+03                                 F               0         Blade 1 Z force, node 67, N
        202    6.267E+03                                 F               0         Blade 1 X force, node 68, N
        203    8.216E+01                                 F               0         Blade 1 Y force, node 68, N
        204   -8.033E+02                                 F               0         Blade 1 Z force, node 68, N
        205    7.781E+03                                 F               0         Blade 1 X force, node 69, N
        206    1.110E+02                                 F               0         Blade 1 Y force, node 69, N
        207   -1.002E+03                                 F               0         Blade 1 Z force, node 69, N
        208    6.724E+03                                 F               0         Blade 1 X force, node 70, N
        209    1.037E+02                                 F               0         Blade 1 Y force, node 70, N
        210   -8.705E+02                                 F               0         Blade 1 Z force, node 70, N
        211    9.148E+03                                 F               0         Blade 1 X force, node 71, N
        212    1.531E+02                                 F               0         Blade 1 Y force, node 71, N
        213   -1.191E+03                                 F               0         Blade 1 Z force, node 71, N
        214    8.087E+03                                 F               0         Blade 1 X force, node 72, N
        215    1.461E+02                                 F               0         Blade 1 Y force, node 72, N
        216   -1.059E+03                                 F               0         Blade 1 Z force, node 72, N