
Linearized model: Predictions were generated on 24-Jan-2024 at 11:24:37 using OpenFAST, compiled as a 64-bit application using single precision at commit v3.5.1
 linked with  NWTC Subroutine Library; ElastoDyn; InflowWind; AeroDyn; ServoDyn; HydroDyn; MAP++ (<1.20.10>, <Oct-20-2023>)

Description from the FAST input file: CCT-9 Campign 4 model. Input files to be run with OpenFAST 3.5.0. GitHub branch from Lu Wang (https://github.com/luwang00/openfast/tree/dev) compiled on March 7, 2023.

Simulation information:
   Simulation time:                   506.9250 s
   Rotor Speed:                         0.8937 rad/s
   Azimuth:                             1.4474 rad
   Wind Speed:                         10.0000 m/s
   Number of continuous states:         0
   Number of discrete states:           0
   Number of constraint states:         0
   Number of inputs:                  303
   Number of outputs:                   1
   Jacobians included in this file?    No

Order of inputs:
     Column   Operating Point                     Rotating Frame? Derivative Order Description
   ---------- ---------------                     --------------- ---------------- -----------
          1   -1.080E+01                                 F               0         X-component position of node 1 (hub), m
          2    0.000E+00                                 F               0         Y-component position of node 1 (hub), m
          3    1.497E+02                                 F               0         Z-component position of node 1 (hub), m
          4   -7.635E+00                                 F               0         X-component position of node 2 (blade 1, node 1), m
          5   -1.281E+01                                 F               0         Y-component position of node 2 (blade 1, node 1), m
          6    1.502E+02                                 F               0         Z-component position of node 2 (blade 1, node 1), m
          7   -7.605E+00                                 F               0         X-component position of node 3 (blade 1, node 2), m
          8   -1.414E+01                                 F               0         Y-component position of node 3 (blade 1, node 2), m
          9    1.503E+02                                 F               0         Z-component position of node 3 (blade 1, node 2), m
         10   -7.193E+00                                 F               0         X-component position of node 4 (blade 1, node 3), m
         11   -3.224E+01                                 F               0         Y-component position of node 4 (blade 1, node 3), m
         12    1.517E+02                                 F               0         Z-component position of node 4 (blade 1, node 3), m
         13   -7.105E+00                                 F               0         X-component position of node 5 (blade 1, node 4), m
         14   -3.609E+01                                 F               0         Y-component position of node 5 (blade 1, node 4), m
         15    1.520E+02                                 F               0         Z-component position of node 5 (blade 1, node 4), m
         16   -7.017E+00                                 F               0         X-component position of node 6 (blade 1, node 5), m
         17   -3.995E+01                                 F               0         Y-component position of node 6 (blade 1, node 5), m
         18    1.523E+02                                 F               0         Z-component position of node 6 (blade 1, node 5), m
         19   -6.929E+00                                 F               0         X-component position of node 7 (blade 1, node 6), m
         20   -4.380E+01                                 F               0         Y-component position of node 7 (blade 1, node 6), m
         21    1.526E+02                                 F               0         Z-component position of node 7 (blade 1, node 6), m
         22   -6.842E+00                                 F               0         X-component position of node 8 (blade 1, node 7), m
         23   -4.766E+01                                 F               0         Y-component position of node 8 (blade 1, node 7), m
         24    1.529E+02                                 F               0         Z-component position of node 8 (blade 1, node 7), m
         25   -6.754E+00                                 F               0         X-component position of node 9 (blade 1, node 8), m
         26   -5.151E+01                                 F               0         Y-component position of node 9 (blade 1, node 8), m
         27    1.532E+02                                 F               0         Z-component position of node 9 (blade 1, node 8), m
         28   -6.666E+00                                 F               0         X-component position of node 10 (blade 1, node 9), m
         29   -5.537E+01                                 F               0         Y-component position of node 10 (blade 1, node 9), m
         30    1.535E+02                                 F               0         Z-component position of node 10 (blade 1, node 9), m
         31   -6.578E+00                                 F               0         X-component position of node 11 (blade 1, node 10), m
         32   -5.922E+01                                 F               0         Y-component position of node 11 (blade 1, node 10), m
         33    1.538E+02                                 F               0         Z-component position of node 11 (blade 1, node 10), m
         34   -6.491E+00                                 F               0         X-component position of node 12 (blade 1, node 11), m
         35   -6.308E+01                                 F               0         Y-component position of node 12 (blade 1, node 11), m
         36    1.541E+02                                 F               0         Z-component position of node 12 (blade 1, node 11), m
         37   -6.403E+00                                 F               0         X-component position of node 13 (blade 1, node 12), m
         38   -6.693E+01                                 F               0         Y-component position of node 13 (blade 1, node 12), m
         39    1.544E+02                                 F               0         Z-component position of node 13 (blade 1, node 12), m
         40   -6.315E+00                                 F               0         X-component position of node 14 (blade 1, node 13), m
         41   -7.079E+01                                 F               0         Y-component position of node 14 (blade 1, node 13), m
         42    1.547E+02                                 F               0         Z-component position of node 14 (blade 1, node 13), m
         43   -6.227E+00                                 F               0         X-component position of node 15 (blade 1, node 14), m
         44   -7.464E+01                                 F               0         Y-component position of node 15 (blade 1, node 14), m
         45    1.550E+02                                 F               0         Z-component position of node 15 (blade 1, node 14), m
         46   -6.139E+00                                 F               0         X-component position of node 16 (blade 1, node 15), m
         47   -7.850E+01                                 F               0         Y-component position of node 16 (blade 1, node 15), m
         48    1.553E+02                                 F               0         Z-component position of node 16 (blade 1, node 15), m
         49   -6.052E+00                                 F               0         X-component position of node 17 (blade 1, node 16), m
         50   -8.235E+01                                 F               0         Y-component position of node 17 (blade 1, node 16), m
         51    1.556E+02                                 F               0         Z-component position of node 17 (blade 1, node 16), m
         52   -5.964E+00                                 F               0         X-component position of node 18 (blade 1, node 17), m
         53   -8.621E+01                                 F               0         Y-component position of node 18 (blade 1, node 17), m
         54    1.559E+02                                 F               0         Z-component position of node 18 (blade 1, node 17), m
         55   -5.876E+00                                 F               0         X-component position of node 19 (blade 1, node 18), m
         56   -9.006E+01                                 F               0         Y-component position of node 19 (blade 1, node 18), m
         57    1.562E+02                                 F               0         Z-component position of node 19 (blade 1, node 18), m
         58   -5.788E+00                                 F               0         X-component position of node 20 (blade 1, node 19), m
         59   -9.392E+01                                 F               0         Y-component position of node 20 (blade 1, node 19), m
         60    1.565E+02                                 F               0         Z-component position of node 20 (blade 1, node 19), m
         61   -5.701E+00                                 F               0         X-component position of node 21 (blade 1, node 20), m
         62   -9.777E+01                                 F               0         Y-component position of node 21 (blade 1, node 20), m
         63    1.568E+02                                 F               0         Z-component position of node 21 (blade 1, node 20), m
         64   -5.613E+00                                 F               0         X-component position of node 22 (blade 1, node 21), m
         65   -1.016E+02                                 F               0         Y-component position of node 22 (blade 1, node 21), m
         66    1.571E+02                                 F               0         Z-component position of node 22 (blade 1, node 21), m
         67   -5.525E+00                                 F               0         X-component position of node 23 (blade 1, node 22), m
         68   -1.055E+02                                 F               0         Y-component position of node 23 (blade 1, node 22), m
         69    1.574E+02                                 F               0         Z-component position of node 23 (blade 1, node 22), m
         70   -5.437E+00                                 F               0         X-component position of node 24 (blade 1, node 23), m
         71   -1.093E+02                                 F               0         Y-component position of node 24 (blade 1, node 23), m
         72    1.577E+02                                 F               0         Z-component position of node 24 (blade 1, node 23), m
         73   -5.350E+00                                 F               0         X-component position of node 25 (blade 1, node 24), m
         74   -1.132E+02                                 F               0         Y-component position of node 25 (blade 1, node 24), m
         75    1.580E+02                                 F               0         Z-component position of node 25 (blade 1, node 24), m
         76   -5.262E+00                                 F               0         X-component position of node 26 (blade 1, node 25), m
         77   -1.171E+02                                 F               0         Y-component position of node 26 (blade 1, node 25), m
         78    1.583E+02                                 F               0         Z-component position of node 26 (blade 1, node 25), m
         79   -5.174E+00                                 F               0         X-component position of node 27 (blade 1, node 26), m
         80   -1.209E+02                                 F               0         Y-component position of node 27 (blade 1, node 26), m
         81    1.586E+02                                 F               0         Z-component position of node 27 (blade 1, node 26), m
         82   -5.086E+00                                 F               0         X-component position of node 28 (blade 1, node 27), m
         83   -1.248E+02                                 F               0         Y-component position of node 28 (blade 1, node 27), m
         84    1.589E+02                                 F               0         Z-component position of node 28 (blade 1, node 27), m
         85   -5.012E+00                                 F               0         X-component position of node 29 (blade 1, node 28), m
         86   -1.280E+02                                 F               0         Y-component position of node 29 (blade 1, node 28), m
         87    1.591E+02                                 F               0         Z-component position of node 29 (blade 1, node 28), m
         88   -8.426E+00                                 F               0         X-component position of node 30 (blade 2, node 1), m
         89   -4.909E+00                                 F               0         Y-component position of node 30 (blade 2, node 1), m
         90    1.448E+02                                 F               0         Z-component position of node 30 (blade 2, node 1), m
         91   -8.587E+00                                 F               0         X-component position of node 31 (blade 2, node 2), m
         92   -4.335E+00                                 F               0         Y-component position of node 31 (blade 2, node 2), m
         93    1.436E+02                                 F               0         Z-component position of node 31 (blade 2, node 2), m
         94   -1.077E+01                                 F               0         X-component position of node 32 (blade 2, node 3), m
         95    3.466E+00                                 F               0         Y-component position of node 32 (blade 2, node 3), m
         96    1.274E+02                                 F               0         Z-component position of node 32 (blade 2, node 3), m
         97   -1.123E+01                                 F               0         X-component position of node 33 (blade 2, node 4), m
         98    5.128E+00                                 F               0         Y-component position of node 33 (blade 2, node 4), m
         99    1.239E+02                                 F               0         Z-component position of node 33 (blade 2, node 4), m
        100   -1.170E+01                                 F               0         X-component position of node 34 (blade 2, node 5), m
        101    6.790E+00                                 F               0         Y-component position of node 34 (blade 2, node 5), m
        102    1.205E+02                                 F               0         Z-component position of node 34 (blade 2, node 5), m
        103   -1.216E+01                                 F               0         X-component position of node 35 (blade 2, node 6), m
        104    8.452E+00                                 F               0         Y-component position of node 35 (blade 2, node 6), m
        105    1.170E+02                                 F               0         Z-component position of node 35 (blade 2, node 6), m
        106   -1.263E+01                                 F               0         X-component position of node 36 (blade 2, node 7), m
        107    1.011E+01                                 F               0         Y-component position of node 36 (blade 2, node 7), m
        108    1.135E+02                                 F               0         Z-component position of node 36 (blade 2, node 7), m
        109   -1.309E+01                                 F               0         X-component position of node 37 (blade 2, node 8), m
        110    1.178E+01                                 F               0         Y-component position of node 37 (blade 2, node 8), m
        111    1.101E+02                                 F               0         Z-component position of node 37 (blade 2, node 8), m
        112   -1.356E+01                                 F               0         X-component position of node 38 (blade 2, node 9), m
        113    1.344E+01                                 F               0         Y-component position of node 38 (blade 2, node 9), m
        114    1.066E+02                                 F               0         Z-component position of node 38 (blade 2, node 9), m
        115   -1.402E+01                                 F               0         X-component position of node 39 (blade 2, node 10), m
        116    1.510E+01                                 F               0         Y-component position of node 39 (blade 2, node 10), m
        117    1.031E+02                                 F               0         Z-component position of node 39 (blade 2, node 10), m
        118   -1.449E+01                                 F               0         X-component position of node 40 (blade 2, node 11), m
        119    1.676E+01                                 F               0         Y-component position of node 40 (blade 2, node 11), m
        120    9.969E+01                                 F               0         Z-component position of node 40 (blade 2, node 11), m
        121   -1.495E+01                                 F               0         X-component position of node 41 (blade 2, node 12), m
        122    1.843E+01                                 F               0         Y-component position of node 41 (blade 2, node 12), m
        123    9.623E+01                                 F               0         Z-component position of node 41 (blade 2, node 12), m
        124   -1.541E+01                                 F               0         X-component position of node 42 (blade 2, node 13), m
        125    2.009E+01                                 F               0         Y-component position of node 42 (blade 2, node 13), m
        126    9.277E+01                                 F               0         Z-component position of node 42 (blade 2, node 13), m
        127   -1.588E+01                                 F               0         X-component position of node 43 (blade 2, node 14), m
        128    2.175E+01                                 F               0         Y-component position of node 43 (blade 2, node 14), m
        129    8.930E+01                                 F               0         Z-component position of node 43 (blade 2, node 14), m
        130   -1.634E+01                                 F               0         X-component position of node 44 (blade 2, node 15), m
        131    2.341E+01                                 F               0         Y-component position of node 44 (blade 2, node 15), m
        132    8.584E+01                                 F               0         Z-component position of node 44 (blade 2, node 15), m
        133   -1.681E+01                                 F               0         X-component position of node 45 (blade 2, node 16), m
        134    2.507E+01                                 F               0         Y-component position of node 45 (blade 2, node 16), m
        135    8.238E+01                                 F               0         Z-component position of node 45 (blade 2, node 16), m
        136   -1.727E+01                                 F               0         X-component position of node 46 (blade 2, node 17), m
        137    2.674E+01                                 F               0         Y-component position of node 46 (blade 2, node 17), m
        138    7.892E+01                                 F               0         Z-component position of node 46 (blade 2, node 17), m
        139   -1.774E+01                                 F               0         X-component position of node 47 (blade 2, node 18), m
        140    2.840E+01                                 F               0         Y-component position of node 47 (blade 2, node 18), m
        141    7.546E+01                                 F               0         Z-component position of node 47 (blade 2, node 18), m
        142   -1.820E+01                                 F               0         X-component position of node 48 (blade 2, node 19), m
        143    3.006E+01                                 F               0         Y-component position of node 48 (blade 2, node 19), m
        144    7.200E+01                                 F               0         Z-component position of node 48 (blade 2, node 19), m
        145   -1.867E+01                                 F               0         X-component position of node 49 (blade 2, node 20), m
        146    3.172E+01                                 F               0         Y-component position of node 49 (blade 2, node 20), m
        147    6.854E+01                                 F               0         Z-component position of node 49 (blade 2, node 20), m
        148   -1.913E+01                                 F               0         X-component position of node 50 (blade 2, node 21), m
        149    3.338E+01                                 F               0         Y-component position of node 50 (blade 2, node 21), m
        150    6.508E+01                                 F               0         Z-component position of node 50 (blade 2, node 21), m
        151   -1.960E+01                                 F               0         X-component position of node 51 (blade 2, node 22), m
        152    3.505E+01                                 F               0         Y-component position of node 51 (blade 2, node 22), m
        153    6.161E+01                                 F               0         Z-component position of node 51 (blade 2, node 22), m
        154   -2.006E+01                                 F               0         X-component position of node 52 (blade 2, node 23), m
        155    3.671E+01                                 F               0         Y-component position of node 52 (blade 2, node 23), m
        156    5.815E+01                                 F               0         Z-component position of node 52 (blade 2, node 23), m
        157   -2.053E+01                                 F               0         X-component position of node 53 (blade 2, node 24), m
        158    3.837E+01                                 F               0         Y-component position of node 53 (blade 2, node 24), m
        159    5.469E+01                                 F               0         Z-component position of node 53 (blade 2, node 24), m
        160   -2.099E+01                                 F               0         X-component position of node 54 (blade 2, node 25), m
        161    4.003E+01                                 F               0         Y-component position of node 54 (blade 2, node 25), m
        162    5.123E+01                                 F               0         Z-component position of node 54 (blade 2, node 25), m
        163   -2.146E+01                                 F               0         X-component position of node 55 (blade 2, node 26), m
        164    4.170E+01                                 F               0         Y-component position of node 55 (blade 2, node 26), m
        165    4.777E+01                                 F               0         Z-component position of node 55 (blade 2, node 26), m
        166   -2.192E+01                                 F               0         X-component position of node 56 (blade 2, node 27), m
        167    4.336E+01                                 F               0         Y-component position of node 56 (blade 2, node 27), m
        168    4.431E+01                                 F               0         Z-component position of node 56 (blade 2, node 27), m
        169   -2.231E+01                                 F               0         X-component position of node 57 (blade 2, node 28), m
        170    4.477E+01                                 F               0         Y-component position of node 57 (blade 2, node 28), m
        171    4.137E+01                                 F               0         Z-component position of node 57 (blade 2, node 28), m
        172   -7.221E+00                                 F               0         X-component position of node 58 (blade 3, node 1), m
        173   -4.148E+00                                 F               0         Y-component position of node 58 (blade 3, node 1), m
        174    1.543E+02                                 F               0         Z-component position of node 58 (blade 3, node 1), m
        175   -7.091E+00                                 F               0         X-component position of node 59 (blade 3, node 2), m
        176   -3.391E+00                                 F               0         Y-component position of node 59 (blade 3, node 2), m
        177    1.554E+02                                 F               0         Z-component position of node 59 (blade 3, node 2), m
        178   -5.322E+00                                 F               0         X-component position of node 60 (blade 3, node 3), m
        179    6.902E+00                                 F               0         Y-component position of node 60 (blade 3, node 3), m
        180    1.702E+02                                 F               0         Z-component position of node 60 (blade 3, node 3), m
        181   -4.945E+00                                 F               0         X-component position of node 61 (blade 3, node 4), m
        182    9.095E+00                                 F               0         Y-component position of node 61 (blade 3, node 4), m
        183    1.734E+02                                 F               0         Z-component position of node 61 (blade 3, node 4), m
        184   -4.568E+00                                 F               0         X-component position of node 62 (blade 3, node 5), m
        185    1.129E+01                                 F               0         Y-component position of node 62 (blade 3, node 5), m
        186    1.766E+02                                 F               0         Z-component position of node 62 (blade 3, node 5), m
        187   -4.191E+00                                 F               0         X-component position of node 63 (blade 3, node 6), m
        188    1.348E+01                                 F               0         Y-component position of node 63 (blade 3, node 6), m
        189    1.797E+02                                 F               0         Z-component position of node 63 (blade 3, node 6), m
        190   -3.814E+00                                 F               0         X-component position of node 64 (blade 3, node 7), m
        191    1.567E+01                                 F               0         Y-component position of node 64 (blade 3, node 7), m
        192    1.829E+02                                 F               0         Z-component position of node 64 (blade 3, node 7), m
        193   -3.437E+00                                 F               0         X-component position of node 65 (blade 3, node 8), m
        194    1.787E+01                                 F               0         Y-component position of node 65 (blade 3, node 8), m
        195    1.861E+02                                 F               0         Z-component position of node 65 (blade 3, node 8), m
        196   -3.060E+00                                 F               0         X-component position of node 66 (blade 3, node 9), m
        197    2.006E+01                                 F               0         Y-component position of node 66 (blade 3, node 9), m
        198    1.892E+02                                 F               0         Z-component position of node 66 (blade 3, node 9), m
        199   -2.683E+00                                 F               0         X-component position of node 67 (blade 3, node 10), m
        200    2.225E+01                                 F               0         Y-component position of node 67 (blade 3, node 10), m
        201    1.924E+02                                 F               0         Z-component position of node 67 (blade 3, node 10), m
        202   -2.306E+00                                 F               0         X-component position of node 68 (blade 3, node 11), m
        203    2.445E+01                                 F               0         Y-component position of node 68 (blade 3, node 11), m
        204    1.956E+02                                 F               0         Z-component position of node 68 (blade 3, node 11), m
        205   -1.929E+00                                 F               0         X-component position of node 69 (blade 3, node 12), m
        206    2.664E+01                                 F               0         Y-component position of node 69 (blade 3, node 12), m
        207    1.987E+02                                 F               0         Z-component position of node 69 (blade 3, node 12), m
        208   -1.552E+00                                 F               0         X-component position of node 70 (blade 3, node 13), m
        209    2.883E+01                                 F               0         Y-component position of node 70 (blade 3, node 13), m
        210    2.019E+02                                 F               0         Z-component position of node 70 (blade 3, node 13), m
        211   -1.175E+00                                 F               0         X-component position of node 71 (blade 3, node 14), m