
Linearized model: Predictions were generated on 24-Jan-2024 at 11:24:37 using OpenFAST, compiled as a 64-bit application using single precision at commit v3.5.1
 linked with  NWTC Subroutine Library; ElastoDyn; InflowWind; AeroDyn; ServoDyn; HydroDyn; MAP++ (<1.20.10>, <Oct-20-2023>)

Description from the FAST input file: CCT-9 Campign 4 model. Input files to be run with OpenFAST 3.5.0. GitHub branch from Lu Wang (https://github.com/luwang00/openfast/tree/dev) compiled on March 7, 2023.

Simulation information:
   Simulation time:                   504.4500 s
   Rotor Speed:                         0.8939 rad/s
   Azimuth:                             5.5185 rad
   Wind Speed:                         10.0000 m/s
   Number of continuous states:         0
   Number of discrete states:           0
   Number of constraint states:         0
   Number of inputs:                 1746
   Number of outputs:                   4
   Jacobians included in this file?    No

Order of inputs:
     Column   Operating Point                     Rotating Frame? Derivative Order Description
   ---------- ---------------                     --------------- ---------------- -----------
          1    1.535E-01                                 F               0         Tower X translation displacement, node 1, m
          2   -1.355E+00                                 F               0         Tower Y translation displacement, node 1, m
          3   -4.807E-02                                 F               0         Tower Z translation displacement, node 1, m
          4    3.902E-01                                 F               0         Tower X translation displacement, node 2, m
          5   -1.889E+00                                 F               0         Tower Y translation displacement, node 2, m
          6   -6.192E-02                                 F               0         Tower Z translation displacement, node 2, m
          7    6.403E-01                                 F               0         Tower X translation displacement, node 3, m
          8   -2.429E+00                                 F               0         Tower Y translation displacement, node 3, m
          9   -7.623E-02                                 F               0         Tower Z translation displacement, node 3, m
         10    9.001E-01                                 F               0         Tower X translation displacement, node 4, m
         11   -2.972E+00                                 F               0         Tower Y translation displacement, node 4, m
         12   -9.093E-02                                 F               0         Tower Z translation displacement, node 4, m
         13    1.168E+00                                 F               0         Tower X translation displacement, node 5, m
         14   -3.519E+00                                 F               0         Tower Y translation displacement, node 5, m
         15   -1.059E-01                                 F               0         Tower Z translation displacement, node 5, m
         16    1.442E+00                                 F               0         Tower X translation displacement, node 6, m
         17   -4.069E+00                                 F               0         Tower Y translation displacement, node 6, m
         18   -1.212E-01                                 F               0         Tower Z translation displacement, node 6, m
         19    1.720E+00                                 F               0         Tower X translation displacement, node 7, m
         20   -4.621E+00                                 F               0         Tower Y translation displacement, node 7, m
         21   -1.367E-01                                 F               0         Tower Z translation displacement, node 7, m
         22    2.001E+00                                 F               0         Tower X translation displacement, node 8, m
         23   -5.174E+00                                 F               0         Tower Y translation displacement, node 8, m
         24   -1.523E-01                                 F               0         Tower Z translation displacement, node 8, m
         25    2.284E+00                                 F               0         Tower X translation displacement, node 9, m
         26   -5.730E+00                                 F               0         Tower Y translation displacement, node 9, m
         27   -1.680E-01                                 F               0         Tower Z translation displacement, node 9, m
         28    2.569E+00                                 F               0         Tower X translation displacement, node 10, m
         29   -6.286E+00                                 F               0         Tower Y translation displacement, node 10, m
         30   -1.838E-01                                 F               0         Tower Z translation displacement, node 10, m
         31    2.854E+00                                 F               0         Tower X translation displacement, node 11, m
         32   -6.843E+00                                 F               0         Tower Y translation displacement, node 11, m
         33   -1.997E-01                                 F               0         Tower Z translation displacement, node 11, m
         34    9.998E-01,  7.908E-03, -1.840E-02         F               0         Tower X orientation angle, node 1, rad
         35   -7.106E-03,  9.990E-01,  4.325E-02         F               0         Tower Y orientation angle, node 1, rad
         36    1.873E-02, -4.311E-02,  9.989E-01         F               0         Tower Z orientation angle, node 1, rad
         37    9.998E-01,  7.952E-03, -1.942E-02         F               0         Tower X orientation angle, node 2, rad
         38   -7.099E-03,  9.990E-01,  4.363E-02         F               0         Tower Y orientation angle, node 2, rad
         39    1.975E-02, -4.349E-02,  9.989E-01         F               0         Tower Z orientation angle, node 2, rad
         40    9.998E-01,  7.990E-03, -2.029E-02         F               0         Tower X orientation angle, node 3, rad
         41   -7.092E-03,  9.990E-01,  4.398E-02         F               0         Tower Y orientation angle, node 3, rad
         42    2.062E-02, -4.382E-02,  9.988E-01         F               0         Tower Z orientation angle, node 3, rad
         43    9.997E-01,  8.022E-03, -2.101E-02         F               0         Tower X orientation angle, node 4, rad
         44   -7.085E-03,  9.990E-01,  4.428E-02         F               0         Tower Y orientation angle, node 4, rad
         45    2.134E-02, -4.412E-02,  9.988E-01         F               0         Tower Z orientation angle, node 4, rad
         46    9.997E-01,  8.047E-03, -2.157E-02         F               0         Tower X orientation angle, node 5, rad
         47   -7.080E-03,  9.990E-01,  4.454E-02         F               0         Tower Y orientation angle, node 5, rad
         48    2.191E-02, -4.437E-02,  9.988E-01         F               0         Tower Z orientation angle, node 5, rad
         49    9.997E-01,  8.066E-03, -2.200E-02         F               0         Tower X orientation angle, node 6, rad
         50   -7.075E-03,  9.990E-01,  4.475E-02         F               0         Tower Y orientation angle, node 6, rad
         51    2.234E-02, -4.459E-02,  9.988E-01         F               0         Tower Z orientation angle, node 6, rad
         52    9.997E-01,  8.080E-03, -2.231E-02         F               0         Tower X orientation angle, node 7, rad
         53   -7.071E-03,  9.990E-01,  4.493E-02         F               0         Tower Y orientation angle, node 7, rad
         54    2.265E-02, -4.476E-02,  9.987E-01         F               0         Tower Z orientation angle, node 7, rad
         55    9.997E-01,  8.089E-03, -2.251E-02         F               0         Tower X orientation angle, node 8, rad
         56   -7.068E-03,  9.990E-01,  4.506E-02         F               0         Tower Y orientation angle, node 8, rad
         57    2.285E-02, -4.489E-02,  9.987E-01         F               0         Tower Z orientation angle, node 8, rad
         58    9.997E-01,  8.095E-03, -2.264E-02         F               0         Tower X orientation angle, node 9, rad
         59   -7.066E-03,  9.990E-01,  4.516E-02         F               0         Tower Y orientation angle, node 9, rad
         60    2.298E-02, -4.498E-02,  9.987E-01         F               0         Tower Z orientation angle, node 9, rad
         61    9.997E-01,  8.098E-03, -2.271E-02         F               0         Tower X orientation angle, node 10, rad
         62   -7.065E-03,  9.990E-01,  4.522E-02         F               0         Tower Y orientation angle, node 10, rad
         63    2.305E-02, -4.505E-02,  9.987E-01         F               0         Tower Z orientation angle, node 10, rad
         64    9.997E-01,  8.100E-03, -2.274E-02         F               0         Tower X orientation angle, node 11, rad
         65   -7.064E-03,  9.990E-01,  4.526E-02         F               0         Tower Y orientation angle, node 11, rad
         66    2.308E-02, -4.508E-02,  9.987E-01         F               0         Tower Z orientation angle, node 11, rad
         67   -1.785E-07                                 F               0         Tower X translation velocity, node 1, m/s
         68   -7.754E-08                                 F               0         Tower Y translation velocity, node 1, m/s
         69    0.000E+00                                 F               0         Tower Z translation velocity, node 1, m/s
         70    5.006E-06                                 F               0         Tower X translation velocity, node 2, m/s
         71    3.891E-06                                 F               0         Tower Y translation velocity, node 2, m/s
         72    7.127E-08                                 F               0         Tower Z translation velocity, node 2, m/s
         73    2.542E-05                                 F               0         Tower X translation velocity, node 3, m/s
         74    1.827E-05                                 F               0         Tower Y translation velocity, node 3, m/s
         75    2.863E-07                                 F               0         Tower Z translation velocity, node 3, m/s
         76    6.037E-05                                 F               0         Tower X translation velocity, node 4, m/s
         77    4.108E-05                                 F               0         Tower Y translation velocity, node 4, m/s
         78    5.542E-07                                 F               0         Tower Z translation velocity, node 4, m/s
         79    1.103E-04                                 F               0         Tower X translation velocity, node 5, m/s
         80    7.136E-05                                 F               0         Tower Y translation velocity, node 5, m/s
         81    8.117E-07                                 F               0         Tower Z translation velocity, node 5, m/s
         82    1.753E-04                                 F               0         Tower X translation velocity, node 6, m/s
         83    1.081E-04                                 F               0         Tower Y translation velocity, node 6, m/s
         84    1.008E-06                                 F               0         Tower Z translation velocity, node 6, m/s
         85    2.537E-04                                 F               0         Tower X translation velocity, node 7, m/s
         86    1.501E-04                                 F               0         Tower Y translation velocity, node 7, m/s
         87    1.119E-06                                 F               0         Tower Z translation velocity, node 7, m/s
         88    3.455E-04                                 F               0         Tower X translation velocity, node 8, m/s
         89    1.967E-04                                 F               0         Tower Y translation velocity, node 8, m/s
         90    1.118E-06                                 F               0         Tower Z translation velocity, node 8, m/s
         91    4.488E-04                                 F               0         Tower X translation velocity, node 9, m/s
         92    2.469E-04                                 F               0         Tower Y translation velocity, node 9, m/s
         93    1.005E-06                                 F               0         Tower Z translation velocity, node 9, m/s
         94    5.613E-04                                 F               0         Tower X translation velocity, node 10, m/s
         95    2.997E-04                                 F               0         Tower Y translation velocity, node 10, m/s
         96    7.932E-07                                 F               0         Tower Z translation velocity, node 10, m/s
         97    6.799E-04                                 F               0         Tower X translation velocity, node 11, m/s
         98    3.541E-04                                 F               0         Tower Y translation velocity, node 11, m/s
         99    5.111E-07                                 F               0         Tower Z translation velocity, node 11, m/s
        100    3.038E+00                                 F               0         Hub X translation displacement, node 1, m
        101   -7.284E+00                                 F               0         Hub Y translation displacement, node 1, m
        102    3.584E-02                                 F               0         Hub Z translation displacement, node 1, m
        103    9.918E-01,  1.277E-02, -1.270E-01         F               0         Hub X orientation angle, node 1, rad
        104   -9.333E-02,  7.513E-01, -6.533E-01         F               0         Hub Y orientation angle, node 1, rad
        105    8.708E-02,  6.598E-01,  7.464E-01         F               0         Hub Z orientation angle, node 1, rad
        106    8.866E-01                                 F               0         Hub X rotation velocity, node 1, rad/s
        107    1.142E-02                                 F               0         Hub Y rotation velocity, node 1, rad/s
        108   -1.135E-01                                 F               0         Hub Z rotation velocity, node 1, rad/s
        109    9.942E-01, -9.527E-03, -1.076E-01         F               0         Blade root 1 X orientation angle, node 1, rad
        110   -6.387E-02,  7.514E-01, -6.568E-01         F               0         Blade root 1 Y orientation angle, node 1, rad
        111    8.708E-02,  6.598E-01,  7.464E-01         F               0         Blade root 1 Z orientation angle, node 1, rad
        112    9.878E-01,  6.955E-03, -1.558E-01         F               0         Blade root 2 X orientation angle, node 1, rad
        113    1.515E-01,  1.960E-01,  9.688E-01         F               0         Blade root 2 Y orientation angle, node 1, rad
        114    3.729E-02, -9.806E-01,  1.926E-01         F               0         Blade root 2 Z orientation angle, node 1, rad
        115    9.922E-01,  4.086E-02, -1.175E-01         F               0         Blade root 3 X orientation angle, node 1, rad
        116    6.846E-04, -9.463E-01, -3.234E-01         F               0         Blade root 3 Y orientation angle, node 1, rad
        117   -1.244E-01,  3.208E-01, -9.390E-01         F               0         Blade root 3 Z orientation angle, node 1, rad
        118    2.942E+00                                 F               0         Blade 1 X translation displacement, node 1, m
        119   -3.629E+00                                 F               0         Blade 1 Y translation displacement, node 1, m
        120   -1.339E+00                                 F               0         Blade 1 Z translation displacement, node 1, m
        121    2.918E+00                                 F               0         Blade 1 X translation displacement, node 2, m
        122   -2.748E+00                                 F               0         Blade 1 Y translation displacement, node 2, m
        123   -1.670E+00                                 F               0         Blade 1 Z translation displacement, node 2, m
        124    2.602E+00                                 F               0         Blade 1 X translation displacement, node 3, m
        125    9.229E+00                                 F               0         Blade 1 Y translation displacement, node 3, m
        126   -6.175E+00                                 F               0         Blade 1 Z translation displacement, node 3, m
        127    2.534E+00                                 F               0         Blade 1 X translation displacement, node 4, m
        128    1.178E+01                                 F               0         Blade 1 Y translation displacement, node 4, m
        129   -7.134E+00                                 F               0         Blade 1 Z translation displacement, node 4, m
        130    2.467E+00                                 F               0         Blade 1 X translation displacement, node 5, m
        131    1.433E+01                                 F               0         Blade 1 Y translation displacement, node 5, m
        132   -8.094E+00                                 F               0         Blade 1 Z translation displacement, node 5, m
        133    2.399E+00                                 F               0         Blade 1 X translation displacement, node 6, m
        134    1.688E+01                                 F               0         Blade 1 Y translation displacement, node 6, m
        135   -9.054E+00                                 F               0         Blade 1 Z translation displacement, node 6, m
        136    2.332E+00                                 F               0         Blade 1 X translation displacement, node 7, m
        137    1.944E+01                                 F               0         Blade 1 Y translation displacement, node 7, m
        138   -1.001E+01                                 F               0         Blade 1 Z translation displacement, node 7, m
        139    2.264E+00                                 F               0         Blade 1 X translation displacement, node 8, m
        140    2.199E+01                                 F               0         Blade 1 Y translation displacement, node 8, m
        141   -1.097E+01                                 F               0         Blade 1 Z translation displacement, node 8, m
        142    2.197E+00                                 F               0         Blade 1 X translation displacement, node 9, m
        143    2.454E+01                                 F               0         Blade 1 Y translation displacement, node 9, m
        144   -1.193E+01                                 F               0         Blade 1 Z translation displacement, node 9, m
        145    2.129E+00                                 F               0         Blade 1 X translation displacement, node 10, m
        146    2.709E+01                                 F               0         Blade 1 Y translation displacement, node 10, m
        147   -1.289E+01                                 F               0         Blade 1 Z translation displacement, node 10, m
        148    2.062E+00                                 F               0         Blade 1 X translation displacement, node 11, m
        149    2.964E+01                                 F               0         Blade 1 Y translation displacement, node 11, m
        150   -1.385E+01                                 F               0         Blade 1 Z translation displacement, node 11, m
        151    1.994E+00                                 F               0         Blade 1 X translation displacement, node 12, m
        152    3.220E+01                                 F               0         Blade 1 Y translation displacement, node 12, m
        153   -1.481E+01                                 F               0         Blade 1 Z translation displacement, node 12, m
        154    1.927E+00                                 F               0         Blade 1 X translation displacement, node 13, m
        155    3.475E+01                                 F               0         Blade 1 Y translation displacement, node 13, m
        156   -1.577E+01                                 F               0         Blade 1 Z translation displacement, node 13, m
        157    1.859E+00                                 F               0         Blade 1 X translation displacement, node 14, m
        158    3.730E+01                                 F               0         Blade 1 Y translation displacement, node 14, m
        159   -1.673E+01                                 F               0         Blade 1 Z translation displacement, node 14, m
        160    1.792E+00                                 F               0         Blade 1 X translation displacement, node 15, m
        161    3.985E+01                                 F               0         Blade 1 Y translation displacement, node 15, m
        162   -1.769E+01                                 F               0         Blade 1 Z translation displacement, node 15, m
        163    1.724E+00                                 F               0         Blade 1 X translation displacement, node 16, m
        164    4.240E+01                                 F               0         Blade 1 Y translation displacement, node 16, m
        165   -1.865E+01                                 F               0         Blade 1 Z translation displacement, node 16, m
        166    1.657E+00                                 F               0         Blade 1 X translation displacement, node 17, m
        167    4.496E+01                                 F               0         Blade 1 Y translation displacement, node 17, m
        168   -1.961E+01                                 F               0         Blade 1 Z translation displacement, node 17, m
        169    1.590E+00                                 F               0         Blade 1 X translation displacement, node 18, m
        170    4.751E+01                                 F               0         Blade 1 Y translation displacement, node 18, m
        171   -2.057E+01                                 F               0         Blade 1 Z translation displacement, node 18, m
        172    1.522E+00                                 F               0         Blade 1 X translation displacement, node 19, m
        173    5.006E+01                                 F               0         Blade 1 Y translation displacement, node 19, m
        174   -2.153E+01                                 F               0         Blade 1 Z translation displacement, node 19, m
        175    1.455E+00                                 F               0         Blade 1 X translation displacement, node 20, m
        176    5.261E+01                                 F               0         Blade 1 Y translation displacement, node 20, m
        177   -2.249E+01                                 F               0         Blade 1 Z translation displacement, node 20, m
        178    1.387E+00                                 F               0         Blade 1 X translation displacement, node 21, m
        179    5.516E+01                                 F               0         Blade 1 Y translation displacement, node 21, m
        180   -2.345E+01                                 F               0         Blade 1 Z translation displacement, node 21, m
        181    1.320E+00                                 F               0         Blade 1 X translation displacement, node 22, m
        182    5.772E+01                                 F               0         Blade 1 Y translation displacement, node 22, m
        183   -2.441E+01                                 F               0         Blade 1 Z translation displacement, node 22, m
        184    1.252E+00                                 F               0         Blade 1 X translation displacement, node 23, m
        185    6.027E+01                                 F               0         Blade 1 Y translation displacement, node 23, m
        186   -2.537E+01                                 F               0         Blade 1 Z translation displacement, node 23, m
        187    1.185E+00                                 F               0         Blade 1 X translation displacement, node 24, m
        188    6.282E+01                                 F               0         Blade 1 Y translation displacement, node 24, m
        189   -2.633E+01                                 F               0         Blade 1 Z translation displacement, node 24, m
        190    1.117E+00                                 F               0         Blade 1 X translation displacement, node 25, m
        191    6.537E+01                                 F               0         Blade 1 Y translation displacement, node 25, m
        192   -2.729E+01                                 F               0         Blade 1 Z translation displacement, node 25, m
        193    1.050E+00                                 F               0         Blade 1 X translation displacement, node 26, m
        194    6.792E+01                                 F               0         Blade 1 Y translation displacement, node 26, m
        195   -2.825E+01                                 F               0         Blade 1 Z translation displacement, node 26, m
        196    9.823E-01                                 F               0         Blade 1 X translation displacement, node 27, m
        197    7.048E+01                                 F               0         Blade 1 Y translation displacement, node 27, m
        198   -2.921E+01                                 F               0         Blade 1 Z translation displacement, node 27, m
        199    9.251E-01                                 F               0         Blade 1 X translation displacement, node 28, m
        200    7.264E+01                                 F               0         Blade 1 Y translation displacement, node 28, m
        201   -3.002E+01                                 F               0         Blade 1 Z translation displacement, node 28, m
        202    9.139E-01, -3.511E-01,  2.038E-01         F               0         Blade 1 X orientation angle, node 1, rad
        203    3.965E-01,  6.644E-01, -6.336E-01         F               0         Blade 1 Y orientation angle, node 1, rad
        204    8.708E-02,  6.598E-01,  7.464E-01         F               0         Blade 1 Z orientation angle, node 1, rad
        205    9.139E-01, -3.511E-01,  2.038E-01         F               0         Blade 1 X orientation angle, node 2, rad
        206    3.965E-01,  6.644E-01, -6.336E-01         F               0         Blade 1 Y orientation angle, node 2, rad
        207    8.708E-02,  6.598E-01,  7.464E-01         F               0         Blade 1 Z orientation angle, node 2, rad
        208    9.818E-01, -1.837E-01,  4.779E-02         F               0         Blade 1 X orientation angle, node 3, rad
        209    1.686E-01,  7.286E-01, -6.638E-01         F               0         Blade 1 Y orientation angle, node 3, rad
        210    8.708E-02,  6.598E-01,  7.464E-01         F               0         Blade 1 Z orientation angle, node 3, rad
        211    9.881E-01, -1.527E-01,  1.972E-02         F               0         Blade 1 X orientation angle, node 4, rad
        212    1.270E-01,  7.358E-01, -6.652E-01         F               0         Blade 1 Y orientation angle, node 4, rad
        213    8.708E-02,  6.598E-01,  7.464E-01         F               0         Blade 1 Z orientation angle, node 4, rad
        214    9.917E-01, -1.282E-01, -2.344E-03         F               0         Blade 1 X orientation angle, node 5, rad
        215    9.417E-02,  7.404E-01, -6.655E-01         F               0         Blade 1 Y orientation angle, node 5, rad
        216    8.708E-02,  6.598E-01,  7.464E-01         F               0         Blade 1 Z orientation angle, node 5, rad
        217    9.939E-01, -1.086E-01, -2.000E-02         F               0         Blade 1 X orientation angle, node 6, rad
        218    6.783E-02,  7.436E-01, -6.652E-01         F               0         Blade 1 Y orientation angle, node 6, rad
        219    8.708E-02,  6.598E-01,  7.464E-01         F               0         Blade 1 Z orientation angle, node 6, rad
        220    9.951E-01, -9.231E-02, -3.450E-02         F               0         Blade 1 X orientation angle, node 7, rad
        221    4.613E-02,  7.457E-01, -6.646E-01         F               0         Blade 1 Y orientation angle, node 7, rad
        222    8.708E-02,  6.598E-01,  7.464E-01         F               0         Blade 1 Z orientation angle, node 7, rad
        223    9.958E-01, -7.876E-02, -4.656E-02         F               0         Blade 1 X orientation angle, node 8, rad
        224    2.806E-02,  7.473E-01, -6.639E-01         F               0         Blade 1 Y orientation angle, node 8, rad
        225    8.708E-02,  6.598E-01,  7.464E-01         F               0         Blade 1 Z orientation angle, node 8, rad
        226    9.961E-01, -6.727E-02, -5.675E-02         F               0         Blade 1 X orientation angle, node 9, rad
        227    1.277E-02,  7.484E-01, -6.631E-01         F               0         Blade 1 Y orientation angle, node 9, rad