
Linearized model: Predictions were generated on 24-Jan-2024 at 11:24:37 using OpenFAST, compiled as a 64-bit application using single precision at commit v3.5.1
 linked with  NWTC Subroutine Library; ElastoDyn; InflowWind; AeroDyn; ServoDyn; HydroDyn; MAP++ (<1.20.10>, <Oct-20-2023>)

Description from the FAST input file: CCT-9 Campign 4 model. Input files to be run with OpenFAST 3.5.0. GitHub branch from Lu Wang (https://github.com/luwang00/openfast/tree/dev) compiled on March 7, 2023.

Simulation information:
   Simulation time:                   501.7500 s
   Rotor Speed:                         0.8940 rad/s
   Azimuth:                             3.1045 rad
   Wind Speed:                         10.0000 m/s
   Number of continuous states:        12
   Number of discrete states:           0
   Number of constraint states:         0
   Number of inputs:                 1890
   Number of outputs:                  14
   Jacobians included in this file?    No

Order of continuous states:
   Row/Column Operating Point                     Rotating Frame? Derivative Order Description
   ---------- ---------------                     --------------- ---------------- -----------
          1    7.509E-03                                 F               2         Platform yaw rotation DOF (internal DOF index = DOF_Y), rad
          2    3.843E-01                                 F               2         1st tower fore-aft bending mode DOF (internal DOF index = DOF_TFA1), m
          3    1.733E-01                                 F               2         1st tower side-to-side bending mode DOF (internal DOF index = DOF_TSS1), m
          4    1.289E-03                                 F               2         2nd tower fore-aft bending mode DOF (internal DOF index = DOF_TFA2), m
          5    7.413E-05                                 F               2         2nd tower side-to-side bending mode DOF (internal DOF index = DOF_TSS2), m
          6    1.534E+00                                 F               2         Variable speed generator DOF (internal DOF index = DOF_GeAz), rad
          7    2.246E-06                                 F               2         First time derivative of Platform yaw rotation DOF (internal DOF index = DOF_Y), rad/s
          8   -9.715E-04                                 F               2         First time derivative of 1st tower fore-aft bending mode DOF (internal DOF index = DOF_TFA1), m/s
          9   -2.015E-03                                 F               2         First time derivative of 1st tower side-to-side bending mode DOF (internal DOF index = DOF_TSS1), m/s
         10    1.229E-06                                 F               2         First time derivative of 2nd tower fore-aft bending mode DOF (internal DOF index = DOF_TFA2), m/s
         11    4.098E-07                                 F               2         First time derivative of 2nd tower side-to-side bending mode DOF (internal DOF index = DOF_TSS2), m/s
         12    8.940E-01                                 F               2         First time derivative of Variable speed generator DOF (internal DOF index = DOF_GeAz), rad/s

Order of continuous state derivatives:
   Row/Column Operating Point                     Rotating Frame? Derivative Order Description
   ---------- ---------------                     --------------- ---------------- -----------
          1    2.246E-06                                 F               2         First time derivative of Platform yaw rotation DOF (internal DOF index = DOF_Y), rad/s
          2   -9.715E-04                                 F               2         First time derivative of 1st tower fore-aft bending mode DOF (internal DOF index = DOF_TFA1), m/s
          3   -2.015E-03                                 F               2         First time derivative of 1st tower side-to-side bending mode DOF (internal DOF index = DOF_TSS1), m/s
          4    1.229E-06                                 F               2         First time derivative of 2nd tower fore-aft bending mode DOF (internal DOF index = DOF_TFA2), m/s
          5    4.098E-07                                 F               2         First time derivative of 2nd tower side-to-side bending mode DOF (internal DOF index = DOF_TSS2), m/s
          6    8.940E-01                                 F               2         First time derivative of Variable speed generator DOF (internal DOF index = DOF_GeAz), rad/s
          7    2.243E-06                                 F               2         First time derivative of First time derivative of Platform yaw rotation DOF (internal DOF index = DOF_Y), rad/s/s
          8    1.179E-04                                 F               2         First time derivative of First time derivative of 1st tower fore-aft bending mode DOF (internal DOF index = DOF_TFA1), m/s/s
          9   -4.301E-03                                 F               2         First time derivative of First time derivative of 1st tower side-to-side bending mode DOF (internal DOF index = DOF_TSS1), m/s/s
         10   -2.723E-06                                 F               2         First time derivative of First time derivative of 2nd tower fore-aft bending mode DOF (internal DOF index = DOF_TFA2), m/s/s
         11   -2.618E-06                                 F               2         First time derivative of First time derivative of 2nd tower side-to-side bending mode DOF (internal DOF index = DOF_TSS2), m/s/s
         12    2.133E-04                                 F               2         First time derivative of First time derivative of Variable speed generator DOF (internal DOF index = DOF_GeAz), rad/s/s

Order of inputs:
     Column   Operating Point                     Rotating Frame? Derivative Order Description
   ---------- ---------------                     --------------- ---------------- -----------
          1    7.603E+01                                 F               0         Blade 1 X force, node 1, N
          2   -8.289E+01                                 F               0         Blade 1 Y force, node 1, N
          3   -1.033E+01                                 F               0         Blade 1 Z force, node 1, N
          4    3.249E+02                                 F               0         Blade 1 X force, node 2, N
          5   -1.527E+02                                 F               0         Blade 1 Y force, node 2, N
          6   -4.271E+01                                 F               0         Blade 1 Z force, node 2, N
          7    4.268E+02                                 F               0         Blade 1 X force, node 3, N
          8   -8.734E+01                                 F               0         Blade 1 Y force, node 3, N
          9   -5.531E+01                                 F               0         Blade 1 Z force, node 3, N
         10    5.633E+02                                 F               0         Blade 1 X force, node 4, N
         11   -4.071E+01                                 F               0         Blade 1 Y force, node 4, N
         12   -7.247E+01                                 F               0         Blade 1 Z force, node 4, N
         13    6.998E+02                                 F               0         Blade 1 X force, node 5, N
         14    5.913E+00                                 F               0         Blade 1 Y force, node 5, N
         15   -8.964E+01                                 F               0         Blade 1 Z force, node 5, N
         16    8.363E+02                                 F               0         Blade 1 X force, node 6, N
         17    5.254E+01                                 F               0         Blade 1 Y force, node 6, N
         18   -1.068E+02                                 F               0         Blade 1 Z force, node 6, N
         19    9.729E+02                                 F               0         Blade 1 X force, node 7, N
         20    9.916E+01                                 F               0         Blade 1 Y force, node 7, N
         21   -1.240E+02                                 F               0         Blade 1 Z force, node 7, N
         22    1.109E+03                                 F               0         Blade 1 X force, node 8, N
         23    1.458E+02                                 F               0         Blade 1 Y force, node 8, N
         24   -1.411E+02                                 F               0         Blade 1 Z force, node 8, N
         25    1.246E+03                                 F               0         Blade 1 X force, node 9, N
         26    1.924E+02                                 F               0         Blade 1 Y force, node 9, N
         27   -1.583E+02                                 F               0         Blade 1 Z force, node 9, N
         28    1.382E+03                                 F               0         Blade 1 X force, node 10, N
         29    2.390E+02                                 F               0         Blade 1 Y force, node 10, N
         30   -1.755E+02                                 F               0         Blade 1 Z force, node 10, N
         31    1.519E+03                                 F               0         Blade 1 X force, node 11, N
         32    2.857E+02                                 F               0         Blade 1 Y force, node 11, N
         33   -1.926E+02                                 F               0         Blade 1 Z force, node 11, N
         34    1.655E+03                                 F               0         Blade 1 X force, node 12, N
         35    3.323E+02                                 F               0         Blade 1 Y force, node 12, N
         36   -2.098E+02                                 F               0         Blade 1 Z force, node 12, N
         37    1.792E+03                                 F               0         Blade 1 X force, node 13, N
         38    3.789E+02                                 F               0         Blade 1 Y force, node 13, N
         39   -2.270E+02                                 F               0         Blade 1 Z force, node 13, N
         40    1.928E+03                                 F               0         Blade 1 X force, node 14, N
         41    4.255E+02                                 F               0         Blade 1 Y force, node 14, N
         42   -2.441E+02                                 F               0         Blade 1 Z force, node 14, N
         43    2.065E+03                                 F               0         Blade 1 X force, node 15, N
         44    4.722E+02                                 F               0         Blade 1 Y force, node 15, N
         45   -2.613E+02                                 F               0         Blade 1 Z force, node 15, N
         46    2.202E+03                                 F               0         Blade 1 X force, node 16, N
         47    5.188E+02                                 F               0         Blade 1 Y force, node 16, N
         48   -2.785E+02                                 F               0         Blade 1 Z force, node 16, N
         49    2.713E+03                                 F               0         Blade 1 X force, node 17, N
         50    6.533E+02                                 F               0         Blade 1 Y force, node 17, N
         51   -3.430E+02                                 F               0         Blade 1 Z force, node 17, N
         52    2.085E+03                                 F               0         Blade 1 X force, node 18, N
         53    4.858E+02                                 F               0         Blade 1 Y force, node 18, N
         54   -2.638E+02                                 F               0         Blade 1 Z force, node 18, N
         55    2.577E+03                                 F               0         Blade 1 X force, node 19, N
         56    5.718E+02                                 F               0         Blade 1 Y force, node 19, N
         57   -3.263E+02                                 F               0         Blade 1 Z force, node 19, N
         58    2.212E+03                                 F               0         Blade 1 X force, node 20, N
         59    4.684E+02                                 F               0         Blade 1 Y force, node 20, N
         60   -2.802E+02                                 F               0         Blade 1 Z force, node 20, N
         61    3.292E+03                                 F               0         Blade 1 X force, node 21, N
         62    6.600E+02                                 F               0         Blade 1 Y force, node 21, N
         63   -4.172E+02                                 F               0         Blade 1 Z force, node 21, N
         64    2.926E+03                                 F               0         Blade 1 X force, node 22, N
         65    5.554E+02                                 F               0         Blade 1 Y force, node 22, N
         66   -3.711E+02                                 F               0         Blade 1 Z force, node 22, N
         67    3.024E+03                                 F               0         Blade 1 X force, node 23, N
         68    5.460E+02                                 F               0         Blade 1 Y force, node 23, N
         69   -3.837E+02                                 F               0         Blade 1 Z force, node 23, N
         70    3.176E+03                                 F               0         Blade 1 X force, node 24, N
         71    5.459E+02                                 F               0         Blade 1 Y force, node 24, N
         72   -4.031E+02                                 F               0         Blade 1 Z force, node 24, N
         73    3.272E+03                                 F               0         Blade 1 X force, node 25, N
         74    5.356E+02                                 F               0         Blade 1 Y force, node 25, N
         75   -4.156E+02                                 F               0         Blade 1 Z force, node 25, N
         76    3.386E+03                                 F               0         Blade 1 X force, node 26, N
         77    5.283E+02                                 F               0         Blade 1 Y force, node 26, N
         78   -4.303E+02                                 F               0         Blade 1 Z force, node 26, N
         79    4.078E+03                                 F               0         Blade 1 X force, node 27, N
         80    6.052E+02                                 F               0         Blade 1 Y force, node 27, N
         81   -5.184E+02                                 F               0         Blade 1 Z force, node 27, N
         82    3.038E+03                                 F               0         Blade 1 X force, node 28, N
         83    4.292E+02                                 F               0         Blade 1 Y force, node 28, N
         84   -3.862E+02                                 F               0         Blade 1 Z force, node 28, N
         85    3.729E+03                                 F               0         Blade 1 X force, node 29, N
         86    5.057E+02                                 F               0         Blade 1 Y force, node 29, N
         87   -4.744E+02                                 F               0         Blade 1 Z force, node 29, N
         88    3.184E+03                                 F               0         Blade 1 X force, node 30, N
         89    4.145E+02                                 F               0         Blade 1 Y force, node 30, N
         90   -4.051E+02                                 F               0         Blade 1 Z force, node 30, N
         91    4.618E+03                                 F               0         Blade 1 X force, node 31, N
         92    5.733E+02                                 F               0         Blade 1 Y force, node 31, N
         93   -5.877E+02                                 F               0         Blade 1 Z force, node 31, N
         94    4.071E+03                                 F               0         Blade 1 X force, node 32, N
         95    4.817E+02                                 F               0         Blade 1 Y force, node 32, N
         96   -5.184E+02                                 F               0         Blade 1 Z force, node 32, N
         97    4.184E+03                                 F               0         Blade 1 X force, node 33, N
         98    4.734E+02                                 F               0         Blade 1 Y force, node 33, N
         99   -5.329E+02                                 F               0         Blade 1 Z force, node 33, N
        100    4.298E+03                                 F               0         Blade 1 X force, node 34, N
        101    4.652E+02                                 F               0         Blade 1 Y force, node 34, N
        102   -5.476E+02                                 F               0         Blade 1 Z force, node 34, N
        103    4.412E+03                                 F               0         Blade 1 X force, node 35, N
        104    4.567E+02                                 F               0         Blade 1 Y force, node 35, N
        105   -5.622E+02                                 F               0         Blade 1 Z force, node 35, N
        106    4.525E+03                                 F               0         Blade 1 X force, node 36, N
        107    4.481E+02                                 F               0         Blade 1 Y force, node 36, N
        108   -5.767E+02                                 F               0         Blade 1 Z force, node 36, N
        109    5.427E+03                                 F               0         Blade 1 X force, node 37, N
        110    5.130E+02                                 F               0         Blade 1 Y force, node 37, N
        111   -6.919E+02                                 F               0         Blade 1 Z force, node 37, N
        112    3.963E+03                                 F               0         Blade 1 X force, node 38, N
        113    3.577E+02                                 F               0         Blade 1 Y force, node 38, N
        114   -5.053E+02                                 F               0         Blade 1 Z force, node 38, N
        115    4.866E+03                                 F               0         Blade 1 X force, node 39, N
        116    4.225E+02                                 F               0         Blade 1 Y force, node 39, N
        117   -6.207E+02                                 F               0         Blade 1 Z force, node 39, N
        118    4.157E+03                                 F               0         Blade 1 X force, node 40, N
        119    3.472E+02                                 F               0         Blade 1 Y force, node 40, N
        120   -5.303E+02                                 F               0         Blade 1 Z force, node 40, N
        121    5.917E+03                                 F               0         Blade 1 X force, node 41, N
        122    4.720E+02                                 F               0         Blade 1 Y force, node 41, N
        123   -7.550E+02                                 F               0         Blade 1 Z force, node 41, N
        124    5.207E+03                                 F               0         Blade 1 X force, node 42, N
        125    3.963E+02                                 F               0         Blade 1 Y force, node 42, N
        126   -6.644E+02                                 F               0         Blade 1 Z force, node 42, N
        127    5.319E+03                                 F               0         Blade 1 X force, node 43, N
        128    3.873E+02                                 F               0         Blade 1 Y force, node 43, N
        129   -6.789E+02                                 F               0         Blade 1 Z force, node 43, N
        130    5.460E+03                                 F               0         Blade 1 X force, node 44, N
        131    3.802E+02                                 F               0         Blade 1 Y force, node 44, N
        132   -6.970E+02                                 F               0         Blade 1 Z force, node 44, N
        133    5.515E+03                                 F               0         Blade 1 X force, node 45, N
        134    3.672E+02                                 F               0         Blade 1 Y force, node 45, N
        135   -7.041E+02                                 F               0         Blade 1 Z force, node 45, N
        136    5.656E+03                                 F               0         Blade 1 X force, node 46, N
        137    3.602E+02                                 F               0         Blade 1 Y force, node 46, N
        138   -7.223E+02                                 F               0         Blade 1 Z force, node 46, N
        139    6.781E+03                                 F               0         Blade 1 X force, node 47, N
        140    4.115E+02                                 F               0         Blade 1 Y force, node 47, N
        141   -8.661E+02                                 F               0         Blade 1 Z force, node 47, N
        142    4.868E+03                                 F               0         Blade 1 X force, node 48, N
        143    2.816E+02                                 F               0         Blade 1 Y force, node 48, N
        144   -6.219E+02                                 F               0         Blade 1 Z force, node 48, N
        145    5.992E+03                                 F               0         Blade 1 X force, node 49, N
        146    3.327E+02                                 F               0         Blade 1 Y force, node 49, N
        147   -7.656E+02                                 F               0         Blade 1 Z force, node 49, N
        148    5.133E+03                                 F               0         Blade 1 X force, node 50, N
        149    2.734E+02                                 F               0         Blade 1 Y force, node 50, N
        150   -6.558E+02                                 F               0         Blade 1 Z force, node 50, N
        151    7.188E+03                                 F               0         Blade 1 X force, node 51, N
        152    3.645E+02                                 F               0         Blade 1 Y force, node 51, N
        153   -9.186E+02                                 F               0         Blade 1 Z force, node 51, N
        154    6.330E+03                                 F               0         Blade 1 X force, node 52, N
        155    3.052E+02                                 F               0         Blade 1 Y force, node 52, N
        156   -8.090E+02                                 F               0         Blade 1 Z force, node 52, N
        157    6.443E+03                                 F               0         Blade 1 X force, node 53, N
        158    2.961E+02                                 F               0         Blade 1 Y force, node 53, N
        159   -8.236E+02                                 F               0         Blade 1 Z force, node 53, N
        160    6.629E+03                                 F               0         Blade 1 X force, node 54, N
        161    2.901E+02                                 F               0         Blade 1 Y force, node 54, N
        162   -8.475E+02                                 F               0         Blade 1 Z force, node 54, N
        163    6.597E+03                                 F               0         Blade 1 X force, node 55, N
        164    2.747E+02                                 F               0         Blade 1 Y force, node 55, N
        165   -8.435E+02                                 F               0         Blade 1 Z force, node 55, N
        166    6.782E+03                                 F               0         Blade 1 X force, node 56, N
        167    2.686E+02                                 F               0         Blade 1 Y force, node 56, N
        168   -8.673E+02                                 F               0         Blade 1 Z force, node 56, N
        169    8.143E+03                                 F               0         Blade 1 X force, node 57, N
        170    3.052E+02                                 F               0         Blade 1 Y force, node 57, N
        171   -1.041E+03                                 F               0         Blade 1 Z force, node 57, N
        172    5.759E+03                                 F               0         Blade 1 X force, node 58, N
        173    2.042E+02                                 F               0         Blade 1 Y force, node 58, N
        174   -7.366E+02                                 F               0         Blade 1 Z force, node 58, N
        175    7.121E+03                                 F               0         Blade 1 X force, node 59, N
        176    2.408E+02                                 F               0         Blade 1 Y force, node 59, N
        177   -9.108E+02                                 F               0         Blade 1 Z force, node 59, N
        178    6.126E+03                                 F               0         Blade 1 X force, node 60, N
        179    1.972E+02                                 F               0         Blade 1 Y force, node 60, N
        180   -7.836E+02                                 F               0         Blade 1 Z force, node 60, N
        181    8.453E+03                                 F               0         Blade 1 X force, node 61, N
        182    2.565E+02                                 F               0         Blade 1 Y force, node 61, N
        183   -1.081E+03                                 F               0         Blade 1 Z force, node 61, N
        184    7.456E+03                                 F               0         Blade 1 X force, node 62, N
        185    2.126E+02                                 F               0         Blade 1 Y force, node 62, N
        186   -9.540E+02                                 F               0         Blade 1 Z force, node 62, N
        187    7.566E+03                                 F               0         Blade 1 X force, node 63, N
        188    2.031E+02                                 F               0         Blade 1 Y force, node 63, N
        189   -9.682E+02                                 F               0         Blade 1 Z force, node 63, N
        190    7.806E+03                                 F               0         Blade 1 X force, node 64, N
        191    1.967E+02                                 F               0         Blade 1 Y force, node 64, N
        192   -9.989E+02                                 F               0         Blade 1 Z force, node 64, N
        193    7.662E+03                                 F               0         Blade 1 X force, node 65, N
        194    1.811E+02                                 F               0         Blade 1 Y force, node 65, N
        195   -9.806E+02                                 F               0         Blade 1 Z force, node 65, N
        196    7.905E+03                                 F               0         Blade 1 X force, node 66, N
        197    1.750E+02                                 F               0         Blade 1 Y force, node 66, N
        198   -1.012E+03                                 F               0         Blade 1 Z force, node 66, N
        199    9.513E+03                                 F               0         Blade 1 X force, node 67, N
        200    1.957E+02                                 F               0         Blade 1 Y force, node 67, N
        201   -1.218E+03                                 F               0         Blade 1 Z force, node 67, N
        202    6.638E+03                                 F               0         Blade 1 X force, node 68, N
        203    1.265E+02                                 F               0         Blade 1 Y force, node 68, N
        204   -8.497E+02                                 F               0         Blade 1 Z force, node 68, N
        205    8.244E+03                                 F               0         Blade 1 X force, node 69, N
        206    1.469E+02                                 F               0         Blade 1 Y force, node 69, N
        207   -1.055E+03                                 F               0         Blade 1 Z force, node 69, N
        208    7.126E+03                                 F               0         Blade 1 X force, node 70, N
        209    1.181E+02                                 F               0         Blade 1 Y force, node 70, N
        210   -9.124E+02                                 F               0         Blade 1 Z force, node 70, N
        211    9.697E+03                                 F               0         Blade 1 X force, node 71, N
        212    1.471E+02                                 F               0         Blade 1 Y force, node 71, N
        213   -1.242E+03                                 F               0         Blade 1 Z force, node 71, N
        214    8.575E+03                                 F               0         Blade 1 X force, node 72, N
        215    1.179E+02                                 F               0         Blade 1 Y force, node 72, N
        216   -1.098E+03                                 F               0         Blade 1 Z force, node 72, N