
Linearized model: Predictions were generated on 24-Jan-2024 at 11:24:37 using OpenFAST, compiled as a 64-bit application using single precision at commit v3.5.1
 linked with  NWTC Subroutine Library; ElastoDyn; InflowWind; AeroDyn; ServoDyn; HydroDyn; MAP++ (<1.20.10>, <Oct-20-2023>)

Description from the FAST input file: CCT-9 Campign 4 model. Input files to be run with OpenFAST 3.5.0. GitHub branch from Lu Wang (https://github.com/luwang00/openfast/tree/dev) compiled on March 7, 2023.

Simulation information:
   Simulation time:                   500.7500 s
   Rotor Speed:                         0.8938 rad/s
   Azimuth:                             2.2106 rad
   Wind Speed:                         10.0000 m/s
   Number of continuous states:         0
   Number of discrete states:           0
   Number of constraint states:         0
   Number of inputs:                 1746
   Number of outputs:                   4
   Jacobians included in this file?    No

Order of inputs:
     Column   Operating Point                     Rotating Frame? Derivative Order Description
   ---------- ---------------                     --------------- ---------------- -----------
          1    1.535E-01                                 F               0         Tower X translation displacement, node 1, m
          2   -1.355E+00                                 F               0         Tower Y translation displacement, node 1, m
          3   -4.807E-02                                 F               0         Tower Z translation displacement, node 1, m
          4    3.903E-01                                 F               0         Tower X translation displacement, node 2, m
          5   -1.889E+00                                 F               0         Tower Y translation displacement, node 2, m
          6   -6.192E-02                                 F               0         Tower Z translation displacement, node 2, m
          7    6.403E-01                                 F               0         Tower X translation displacement, node 3, m
          8   -2.429E+00                                 F               0         Tower Y translation displacement, node 3, m
          9   -7.625E-02                                 F               0         Tower Z translation displacement, node 3, m
         10    9.003E-01                                 F               0         Tower X translation displacement, node 4, m
         11   -2.973E+00                                 F               0         Tower Y translation displacement, node 4, m
         12   -9.097E-02                                 F               0         Tower Z translation displacement, node 4, m
         13    1.168E+00                                 F               0         Tower X translation displacement, node 5, m
         14   -3.521E+00                                 F               0         Tower Y translation displacement, node 5, m
         15   -1.060E-01                                 F               0         Tower Z translation displacement, node 5, m
         16    1.442E+00                                 F               0         Tower X translation displacement, node 6, m
         17   -4.071E+00                                 F               0         Tower Y translation displacement, node 6, m
         18   -1.213E-01                                 F               0         Tower Z translation displacement, node 6, m
         19    1.720E+00                                 F               0         Tower X translation displacement, node 7, m
         20   -4.624E+00                                 F               0         Tower Y translation displacement, node 7, m
         21   -1.368E-01                                 F               0         Tower Z translation displacement, node 7, m
         22    2.001E+00                                 F               0         Tower X translation displacement, node 8, m
         23   -5.179E+00                                 F               0         Tower Y translation displacement, node 8, m
         24   -1.525E-01                                 F               0         Tower Z translation displacement, node 8, m
         25    2.285E+00                                 F               0         Tower X translation displacement, node 9, m
         26   -5.735E+00                                 F               0         Tower Y translation displacement, node 9, m
         27   -1.683E-01                                 F               0         Tower Z translation displacement, node 9, m
         28    2.570E+00                                 F               0         Tower X translation displacement, node 10, m
         29   -6.293E+00                                 F               0         Tower Y translation displacement, node 10, m
         30   -1.842E-01                                 F               0         Tower Z translation displacement, node 10, m
         31    2.855E+00                                 F               0         Tower X translation displacement, node 11, m
         32   -6.851E+00                                 F               0         Tower Y translation displacement, node 11, m
         33   -2.001E-01                                 F               0         Tower Z translation displacement, node 11, m
         34    9.998E-01,  7.901E-03, -1.840E-02         F               0         Tower X orientation angle, node 1, rad
         35   -7.098E-03,  9.990E-01,  4.325E-02         F               0         Tower Y orientation angle, node 1, rad
         36    1.873E-02, -4.311E-02,  9.989E-01         F               0         Tower Z orientation angle, node 1, rad
         37    9.998E-01,  7.945E-03, -1.942E-02         F               0         Tower X orientation angle, node 2, rad
         38   -7.091E-03,  9.990E-01,  4.365E-02         F               0         Tower Y orientation angle, node 2, rad
         39    1.975E-02, -4.351E-02,  9.989E-01         F               0         Tower Z orientation angle, node 2, rad
         40    9.998E-01,  7.983E-03, -2.030E-02         F               0         Tower X orientation angle, node 3, rad
         41   -7.083E-03,  9.990E-01,  4.401E-02         F               0         Tower Y orientation angle, node 3, rad
         42    2.063E-02, -4.386E-02,  9.988E-01         F               0         Tower Z orientation angle, node 3, rad
         43    9.997E-01,  8.015E-03, -2.101E-02         F               0         Tower X orientation angle, node 4, rad
         44   -7.077E-03,  9.990E-01,  4.433E-02         F               0         Tower Y orientation angle, node 4, rad
         45    2.135E-02, -4.417E-02,  9.988E-01         F               0         Tower Z orientation angle, node 4, rad
         46    9.997E-01,  8.040E-03, -2.158E-02         F               0         Tower X orientation angle, node 5, rad
         47   -7.071E-03,  9.990E-01,  4.460E-02         F               0         Tower Y orientation angle, node 5, rad
         48    2.192E-02, -4.443E-02,  9.988E-01         F               0         Tower Z orientation angle, node 5, rad
         49    9.997E-01,  8.059E-03, -2.201E-02         F               0         Tower X orientation angle, node 6, rad
         50   -7.066E-03,  9.990E-01,  4.483E-02         F               0         Tower Y orientation angle, node 6, rad
         51    2.235E-02, -4.466E-02,  9.988E-01         F               0         Tower Z orientation angle, node 6, rad
         52    9.997E-01,  8.073E-03, -2.232E-02         F               0         Tower X orientation angle, node 7, rad
         53   -7.062E-03,  9.990E-01,  4.501E-02         F               0         Tower Y orientation angle, node 7, rad
         54    2.266E-02, -4.484E-02,  9.987E-01         F               0         Tower Z orientation angle, node 7, rad
         55    9.997E-01,  8.082E-03, -2.253E-02         F               0         Tower X orientation angle, node 8, rad
         56   -7.059E-03,  9.990E-01,  4.515E-02         F               0         Tower Y orientation angle, node 8, rad
         57    2.287E-02, -4.498E-02,  9.987E-01         F               0         Tower Z orientation angle, node 8, rad
         58    9.997E-01,  8.088E-03, -2.266E-02         F               0         Tower X orientation angle, node 9, rad
         59   -7.057E-03,  9.990E-01,  4.525E-02         F               0         Tower Y orientation angle, node 9, rad
         60    2.300E-02, -4.508E-02,  9.987E-01         F               0         Tower Z orientation angle, node 9, rad
         61    9.997E-01,  8.092E-03, -2.272E-02         F               0         Tower X orientation angle, node 10, rad
         62   -7.055E-03,  9.989E-01,  4.532E-02         F               0         Tower Y orientation angle, node 10, rad
         63    2.307E-02, -4.515E-02,  9.987E-01         F               0         Tower Z orientation angle, node 10, rad
         64    9.997E-01,  8.093E-03, -2.275E-02         F               0         Tower X orientation angle, node 11, rad
         65   -7.054E-03,  9.989E-01,  4.536E-02         F               0         Tower Y orientation angle, node 11, rad
         66    2.310E-02, -4.518E-02,  9.987E-01         F               0         Tower Z orientation angle, node 11, rad
         67   -1.198E-06                                 F               0         Tower X translation velocity, node 1, m/s
         68   -5.203E-07                                 F               0         Tower Y translation velocity, node 1, m/s
         69    0.000E+00                                 F               0         Tower Z translation velocity, node 1, m/s
         70   -6.200E-06                                 F               0         Tower X translation velocity, node 2, m/s
         71   -2.990E-05                                 F               0         Tower Y translation velocity, node 2, m/s
         72   -1.179E-06                                 F               0         Tower Z translation velocity, node 2, m/s
         73   -2.363E-05                                 F               0         Tower X translation velocity, node 3, m/s
         74   -1.341E-04                                 F               0         Tower Y translation velocity, node 3, m/s
         75   -5.382E-06                                 F               0         Tower Z translation velocity, node 3, m/s
         76   -5.345E-05                                 F               0         Tower X translation velocity, node 4, m/s
         77   -2.980E-04                                 F               0         Tower Y translation velocity, node 4, m/s
         78   -1.198E-05                                 F               0         Tower Z translation velocity, node 4, m/s
         79   -9.648E-05                                 F               0         Tower X translation velocity, node 5, m/s
         80   -5.145E-04                                 F               0         Tower Y translation velocity, node 5, m/s
         81   -2.065E-05                                 F               0         Tower Z translation velocity, node 5, m/s
         82   -1.530E-04                                 F               0         Tower X translation velocity, node 6, m/s
         83   -7.762E-04                                 F               0         Tower Y translation velocity, node 6, m/s
         84   -3.107E-05                                 F               0         Tower Z translation velocity, node 6, m/s
         85   -2.219E-04                                 F               0         Tower X translation velocity, node 7, m/s
         86   -1.073E-03                                 F               0         Tower Y translation velocity, node 7, m/s
         87   -4.282E-05                                 F               0         Tower Z translation velocity, node 7, m/s
         88   -3.032E-04                                 F               0         Tower X translation velocity, node 8, m/s
         89   -1.402E-03                                 F               0         Tower Y translation velocity, node 8, m/s
         90   -5.573E-05                                 F               0         Tower Z translation velocity, node 8, m/s
         91   -3.955E-04                                 F               0         Tower X translation velocity, node 9, m/s
         92   -1.754E-03                                 F               0         Tower Y translation velocity, node 9, m/s
         93   -6.952E-05                                 F               0         Tower Z translation velocity, node 9, m/s
         94   -4.964E-04                                 F               0         Tower X translation velocity, node 10, m/s
         95   -2.124E-03                                 F               0         Tower Y translation velocity, node 10, m/s
         96   -8.391E-05                                 F               0         Tower Z translation velocity, node 10, m/s
         97   -6.031E-04                                 F               0         Tower X translation velocity, node 11, m/s
         98   -2.505E-03                                 F               0         Tower Y translation velocity, node 11, m/s
         99   -9.865E-05                                 F               0         Tower Z translation velocity, node 11, m/s
        100    3.039E+00                                 F               0         Hub X translation displacement, node 1, m
        101   -7.293E+00                                 F               0         Hub Y translation displacement, node 1, m
        102    3.558E-02                                 F               0         Hub Z translation displacement, node 1, m
        103    9.918E-01,  1.277E-02, -1.270E-01         F               0         Hub X orientation angle, node 1, rad
        104    1.065E-01, -6.317E-01,  7.678E-01         F               0         Hub Y orientation angle, node 1, rad
        105   -7.044E-02, -7.751E-01, -6.279E-01         F               0         Hub Z orientation angle, node 1, rad
        106    8.865E-01                                 F               0         Hub X rotation velocity, node 1, rad/s
        107    1.141E-02                                 F               0         Hub Y rotation velocity, node 1, rad/s
        108   -1.135E-01                                 F               0         Hub Z rotation velocity, node 1, rad/s
        109    9.882E-01,  3.151E-02, -1.497E-01         F               0         Blade root 1 X orientation angle, node 1, rad
        110    1.358E-01, -6.311E-01,  7.637E-01         F               0         Blade root 1 Y orientation angle, node 1, rad
        111   -7.044E-02, -7.751E-01, -6.279E-01         F               0         Blade root 1 Z orientation angle, node 1, rad
        112    9.948E-01,  2.331E-02, -9.945E-02         F               0         Blade root 2 X orientation angle, node 1, rad
        113   -8.477E-02, -3.548E-01, -9.311E-01         F               0         Blade root 2 Y orientation angle, node 1, rad
        114   -5.699E-02,  9.346E-01, -3.510E-01         F               0         Blade root 2 Z orientation angle, node 1, rad
        115    9.912E-01, -1.652E-02, -1.317E-01         F               0         Blade root 3 X orientation angle, node 1, rad
        116    3.719E-02,  9.870E-01,  1.561E-01         F               0         Blade root 3 Y orientation angle, node 1, rad
        117    1.274E-01, -1.596E-01,  9.789E-01         F               0         Blade root 3 Z orientation angle, node 1, rad
        118    2.070E+00                                 F               0         Blade 1 X translation displacement, node 1, m
        119   -1.159E+01                                 F               0         Blade 1 Y translation displacement, node 1, m
        120   -8.953E+00                                 F               0         Blade 1 Z translation displacement, node 1, m
        121    1.837E+00                                 F               0         Blade 1 X translation displacement, node 2, m
        122   -1.262E+01                                 F               0         Blade 1 Y translation displacement, node 2, m
        123   -1.112E+01                                 F               0         Blade 1 Z translation displacement, node 2, m
        124   -1.340E+00                                 F               0         Blade 1 X translation displacement, node 3, m
        125   -2.669E+01                                 F               0         Blade 1 Y translation displacement, node 3, m
        126   -4.057E+01                                 F               0         Blade 1 Z translation displacement, node 3, m
        127   -2.016E+00                                 F               0         Blade 1 X translation displacement, node 4, m
        128   -2.969E+01                                 F               0         Blade 1 Y translation displacement, node 4, m
        129   -4.684E+01                                 F               0         Blade 1 Z translation displacement, node 4, m
        130   -2.693E+00                                 F               0         Blade 1 X translation displacement, node 5, m
        131   -3.269E+01                                 F               0         Blade 1 Y translation displacement, node 5, m
        132   -5.312E+01                                 F               0         Blade 1 Z translation displacement, node 5, m
        133   -3.370E+00                                 F               0         Blade 1 X translation displacement, node 6, m
        134   -3.568E+01                                 F               0         Blade 1 Y translation displacement, node 6, m
        135   -5.940E+01                                 F               0         Blade 1 Z translation displacement, node 6, m
        136   -4.046E+00                                 F               0         Blade 1 X translation displacement, node 7, m
        137   -3.868E+01                                 F               0         Blade 1 Y translation displacement, node 7, m
        138   -6.567E+01                                 F               0         Blade 1 Z translation displacement, node 7, m
        139   -4.723E+00                                 F               0         Blade 1 X translation displacement, node 8, m
        140   -4.168E+01                                 F               0         Blade 1 Y translation displacement, node 8, m
        141   -7.195E+01                                 F               0         Blade 1 Z translation displacement, node 8, m
        142   -5.400E+00                                 F               0         Blade 1 X translation displacement, node 9, m
        143   -4.468E+01                                 F               0         Blade 1 Y translation displacement, node 9, m
        144   -7.822E+01                                 F               0         Blade 1 Z translation displacement, node 9, m
        145   -6.077E+00                                 F               0         Blade 1 X translation displacement, node 10, m
        146   -4.768E+01                                 F               0         Blade 1 Y translation displacement, node 10, m
        147   -8.450E+01                                 F               0         Blade 1 Z translation displacement, node 10, m
        148   -6.753E+00                                 F               0         Blade 1 X translation displacement, node 11, m
        149   -5.067E+01                                 F               0         Blade 1 Y translation displacement, node 11, m
        150   -9.077E+01                                 F               0         Blade 1 Z translation displacement, node 11, m
        151   -7.430E+00                                 F               0         Blade 1 X translation displacement, node 12, m
        152   -5.367E+01                                 F               0         Blade 1 Y translation displacement, node 12, m
        153   -9.705E+01                                 F               0         Blade 1 Z translation displacement, node 12, m
        154   -8.107E+00                                 F               0         Blade 1 X translation displacement, node 13, m
        155   -5.667E+01                                 F               0         Blade 1 Y translation displacement, node 13, m
        156   -1.033E+02                                 F               0         Blade 1 Z translation displacement, node 13, m
        157   -8.784E+00                                 F               0         Blade 1 X translation displacement, node 14, m
        158   -5.967E+01                                 F               0         Blade 1 Y translation displacement, node 14, m
        159   -1.096E+02                                 F               0         Blade 1 Z translation displacement, node 14, m
        160   -9.460E+00                                 F               0         Blade 1 X translation displacement, node 15, m
        161   -6.266E+01                                 F               0         Blade 1 Y translation displacement, node 15, m
        162   -1.159E+02                                 F               0         Blade 1 Z translation displacement, node 15, m
        163   -1.014E+01                                 F               0         Blade 1 X translation displacement, node 16, m
        164   -6.566E+01                                 F               0         Blade 1 Y translation displacement, node 16, m
        165   -1.221E+02                                 F               0         Blade 1 Z translation displacement, node 16, m
        166   -1.081E+01                                 F               0         Blade 1 X translation displacement, node 17, m
        167   -6.866E+01                                 F               0         Blade 1 Y translation displacement, node 17, m
        168   -1.284E+02                                 F               0         Blade 1 Z translation displacement, node 17, m
        169   -1.149E+01                                 F               0         Blade 1 X translation displacement, node 18, m
        170   -7.166E+01                                 F               0         Blade 1 Y translation displacement, node 18, m
        171   -1.347E+02                                 F               0         Blade 1 Z translation displacement, node 18, m
        172   -1.217E+01                                 F               0         Blade 1 X translation displacement, node 19, m
        173   -7.466E+01                                 F               0         Blade 1 Y translation displacement, node 19, m
        174   -1.410E+02                                 F               0         Blade 1 Z translation displacement, node 19, m
        175   -1.284E+01                                 F               0         Blade 1 X translation displacement, node 20, m
        176   -7.765E+01                                 F               0         Blade 1 Y translation displacement, node 20, m
        177   -1.472E+02                                 F               0         Blade 1 Z translation displacement, node 20, m
        178   -1.352E+01                                 F               0         Blade 1 X translation displacement, node 21, m
        179   -8.065E+01                                 F               0         Blade 1 Y translation displacement, node 21, m
        180   -1.535E+02                                 F               0         Blade 1 Z translation displacement, node 21, m
        181   -1.420E+01                                 F               0         Blade 1 X translation displacement, node 22, m
        182   -8.365E+01                                 F               0         Blade 1 Y translation displacement, node 22, m
        183   -1.598E+02                                 F               0         Blade 1 Z translation displacement, node 22, m
        184   -1.487E+01                                 F               0         Blade 1 X translation displacement, node 23, m
        185   -8.665E+01                                 F               0         Blade 1 Y translation displacement, node 23, m
        186   -1.661E+02                                 F               0         Blade 1 Z translation displacement, node 23, m
        187   -1.555E+01                                 F               0         Blade 1 X translation displacement, node 24, m
        188   -8.964E+01                                 F               0         Blade 1 Y translation displacement, node 24, m
        189   -1.723E+02                                 F               0         Blade 1 Z translation displacement, node 24, m
        190   -1.623E+01                                 F               0         Blade 1 X translation displacement, node 25, m
        191   -9.264E+01                                 F               0         Blade 1 Y translation displacement, node 25, m
        192   -1.786E+02                                 F               0         Blade 1 Z translation displacement, node 25, m
        193   -1.690E+01                                 F               0         Blade 1 X translation displacement, node 26, m
        194   -9.564E+01                                 F               0         Blade 1 Y translation displacement, node 26, m
        195   -1.849E+02                                 F               0         Blade 1 Z translation displacement, node 26, m
        196   -1.758E+01                                 F               0         Blade 1 X translation displacement, node 27, m
        197   -9.864E+01                                 F               0         Blade 1 Y translation displacement, node 27, m
        198   -1.912E+02                                 F               0         Blade 1 Z translation displacement, node 27, m
        199   -1.815E+01                                 F               0         Blade 1 X translation displacement, node 28, m
        200   -1.012E+02                                 F               0         Blade 1 Y translation displacement, node 28, m
        201   -1.965E+02                                 F               0         Blade 1 Z translation displacement, node 28, m
        202    8.175E-01,  3.158E-01, -4.815E-01         F               0         Blade 1 X orientation angle, node 1, rad
        203    5.715E-01, -5.473E-01,  6.114E-01         F               0         Blade 1 Y orientation angle, node 1, rad
        204   -7.044E-02, -7.751E-01, -6.279E-01         F               0         Blade 1 Z orientation angle, node 1, rad
        205    8.175E-01,  3.158E-01, -4.815E-01         F               0         Blade 1 X orientation angle, node 2, rad
        206    5.715E-01, -5.473E-01,  6.114E-01         F               0         Blade 1 Y orientation angle, node 2, rad
        207   -7.044E-02, -7.751E-01, -6.279E-01         F               0         Blade 1 Z orientation angle, node 2, rad
        208    9.297E-01,  1.771E-01, -3.229E-01         F               0         Blade 1 X orientation angle, node 3, rad
        209    3.615E-01, -6.065E-01,  7.081E-01         F               0         Blade 1 Y orientation angle, node 3, rad
        210   -7.044E-02, -7.751E-01, -6.279E-01         F               0         Blade 1 Z orientation angle, node 3, rad
        211    9.441E-01,  1.513E-01, -2.927E-01         F               0         Blade 1 X orientation angle, node 4, rad
        212    3.219E-01, -6.135E-01,  7.211E-01         F               0         Blade 1 Y orientation angle, node 4, rad
        213   -7.044E-02, -7.751E-01, -6.279E-01         F               0         Blade 1 Z orientation angle, node 4, rad
        214    9.543E-01,  1.309E-01, -2.687E-01         F               0         Blade 1 X orientation angle, node 5, rad
        215    2.904E-01, -6.182E-01,  7.304E-01         F               0         Blade 1 Y orientation angle, node 5, rad
        216   -7.044E-02, -7.751E-01, -6.279E-01         F               0         Blade 1 Z orientation angle, node 5, rad
        217    9.617E-01,  1.145E-01, -2.492E-01         F               0         Blade 1 X orientation angle, node 6, rad
        218    2.650E-01, -6.214E-01,  7.373E-01         F               0         Blade 1 Y orientation angle, node 6, rad
        219   -7.044E-02, -7.751E-01, -6.279E-01         F               0         Blade 1 Z orientation angle, node 6, rad
        220    9.672E-01,  1.009E-01, -2.330E-01         F               0         Blade 1 X orientation angle, node 7, rad
        221    2.440E-01, -6.238E-01,  7.426E-01         F               0         Blade 1 Y orientation angle, node 7, rad
        222   -7.044E-02, -7.751E-01, -6.279E-01         F               0         Blade 1 Z orientation angle, node 7, rad
        223    9.715E-01,  8.956E-02, -2.195E-01         F               0         Blade 1 X orientation angle, node 8, rad
        224    2.264E-01, -6.255E-01,  7.467E-01         F               0         Blade 1 Y orientation angle, node 8, rad
        225   -7.044E-02, -7.751E-01, -6.279E-01         F               0         Blade 1 Z orientation angle, node 8, rad
        226    9.749E-01,  7.994E-02, -2.080E-01         F               0         Blade 1 X orientation angle, node 9, rad
        227    2.114E-01, -6.268E-01,  7.499E-01         F               0         Blade 1 Y orientation angle, node 9, rad