
Linearized model: Predictions were generated on 24-Jan-2024 at 11:24:37 using OpenFAST, compiled as a 64-bit application using single precision at commit v3.5.1
 linked with  NWTC Subroutine Library; ElastoDyn; InflowWind; AeroDyn; ServoDyn; HydroDyn; MAP++ (<1.20.10>, <Oct-20-2023>)

Description from the FAST input file: CCT-9 Campign 4 model. Input files to be run with OpenFAST 3.5.0. GitHub branch from Lu Wang (https://github.com/luwang00/openfast/tree/dev) compiled on March 7, 2023.

Simulation information:
   Simulation time:                   500.2500 s
   Rotor Speed:                         0.8937 rad/s
   Azimuth:                             1.7637 rad
   Wind Speed:                         10.0000 m/s
   Number of continuous states:         0
   Number of discrete states:           0
   Number of constraint states:         0
   Number of inputs:                 1746
   Number of outputs:                   4
   Jacobians included in this file?    No

Order of inputs:
     Column   Operating Point                     Rotating Frame? Derivative Order Description
   ---------- ---------------                     --------------- ---------------- -----------
          1    1.535E-01                                 F               0         Tower X translation displacement, node 1, m
          2   -1.355E+00                                 F               0         Tower Y translation displacement, node 1, m
          3   -4.807E-02                                 F               0         Tower Z translation displacement, node 1, m
          4    3.903E-01                                 F               0         Tower X translation displacement, node 2, m
          5   -1.889E+00                                 F               0         Tower Y translation displacement, node 2, m
          6   -6.192E-02                                 F               0         Tower Z translation displacement, node 2, m
          7    6.403E-01                                 F               0         Tower X translation displacement, node 3, m
          8   -2.429E+00                                 F               0         Tower Y translation displacement, node 3, m
          9   -7.625E-02                                 F               0         Tower Z translation displacement, node 3, m
         10    9.003E-01                                 F               0         Tower X translation displacement, node 4, m
         11   -2.973E+00                                 F               0         Tower Y translation displacement, node 4, m
         12   -9.096E-02                                 F               0         Tower Z translation displacement, node 4, m
         13    1.168E+00                                 F               0         Tower X translation displacement, node 5, m
         14   -3.520E+00                                 F               0         Tower Y translation displacement, node 5, m
         15   -1.060E-01                                 F               0         Tower Z translation displacement, node 5, m
         16    1.442E+00                                 F               0         Tower X translation displacement, node 6, m
         17   -4.071E+00                                 F               0         Tower Y translation displacement, node 6, m
         18   -1.213E-01                                 F               0         Tower Z translation displacement, node 6, m
         19    1.720E+00                                 F               0         Tower X translation displacement, node 7, m
         20   -4.623E+00                                 F               0         Tower Y translation displacement, node 7, m
         21   -1.368E-01                                 F               0         Tower Z translation displacement, node 7, m
         22    2.002E+00                                 F               0         Tower X translation displacement, node 8, m
         23   -5.178E+00                                 F               0         Tower Y translation displacement, node 8, m
         24   -1.525E-01                                 F               0         Tower Z translation displacement, node 8, m
         25    2.285E+00                                 F               0         Tower X translation displacement, node 9, m
         26   -5.734E+00                                 F               0         Tower Y translation displacement, node 9, m
         27   -1.682E-01                                 F               0         Tower Z translation displacement, node 9, m
         28    2.570E+00                                 F               0         Tower X translation displacement, node 10, m
         29   -6.291E+00                                 F               0         Tower Y translation displacement, node 10, m
         30   -1.841E-01                                 F               0         Tower Z translation displacement, node 10, m
         31    2.855E+00                                 F               0         Tower X translation displacement, node 11, m
         32   -6.849E+00                                 F               0         Tower Y translation displacement, node 11, m
         33   -2.000E-01                                 F               0         Tower Z translation displacement, node 11, m
         34    9.998E-01,  7.902E-03, -1.840E-02         F               0         Tower X orientation angle, node 1, rad
         35   -7.100E-03,  9.990E-01,  4.325E-02         F               0         Tower Y orientation angle, node 1, rad
         36    1.873E-02, -4.311E-02,  9.989E-01         F               0         Tower Z orientation angle, node 1, rad
         37    9.998E-01,  7.946E-03, -1.942E-02         F               0         Tower X orientation angle, node 2, rad
         38   -7.092E-03,  9.990E-01,  4.365E-02         F               0         Tower Y orientation angle, node 2, rad
         39    1.975E-02, -4.350E-02,  9.989E-01         F               0         Tower Z orientation angle, node 2, rad
         40    9.998E-01,  7.984E-03, -2.030E-02         F               0         Tower X orientation angle, node 3, rad
         41   -7.085E-03,  9.990E-01,  4.401E-02         F               0         Tower Y orientation angle, node 3, rad
         42    2.063E-02, -4.385E-02,  9.988E-01         F               0         Tower Z orientation angle, node 3, rad
         43    9.997E-01,  8.016E-03, -2.101E-02         F               0         Tower X orientation angle, node 4, rad
         44   -7.078E-03,  9.990E-01,  4.432E-02         F               0         Tower Y orientation angle, node 4, rad
         45    2.135E-02, -4.416E-02,  9.988E-01         F               0         Tower Z orientation angle, node 4, rad
         46    9.997E-01,  8.041E-03, -2.158E-02         F               0         Tower X orientation angle, node 5, rad
         47   -7.073E-03,  9.990E-01,  4.459E-02         F               0         Tower Y orientation angle, node 5, rad
         48    2.192E-02, -4.442E-02,  9.988E-01         F               0         Tower Z orientation angle, node 5, rad
         49    9.997E-01,  8.061E-03, -2.202E-02         F               0         Tower X orientation angle, node 6, rad
         50   -7.068E-03,  9.990E-01,  4.481E-02         F               0         Tower Y orientation angle, node 6, rad
         51    2.236E-02, -4.464E-02,  9.988E-01         F               0         Tower Z orientation angle, node 6, rad
         52    9.997E-01,  8.074E-03, -2.232E-02         F               0         Tower X orientation angle, node 7, rad
         53   -7.064E-03,  9.990E-01,  4.499E-02         F               0         Tower Y orientation angle, node 7, rad
         54    2.266E-02, -4.482E-02,  9.987E-01         F               0         Tower Z orientation angle, node 7, rad
         55    9.997E-01,  8.084E-03, -2.253E-02         F               0         Tower X orientation angle, node 8, rad
         56   -7.061E-03,  9.990E-01,  4.513E-02         F               0         Tower Y orientation angle, node 8, rad
         57    2.287E-02, -4.496E-02,  9.987E-01         F               0         Tower Z orientation angle, node 8, rad
         58    9.997E-01,  8.090E-03, -2.266E-02         F               0         Tower X orientation angle, node 9, rad
         59   -7.058E-03,  9.990E-01,  4.523E-02         F               0         Tower Y orientation angle, node 9, rad
         60    2.300E-02, -4.506E-02,  9.987E-01         F               0         Tower Z orientation angle, node 9, rad
         61    9.997E-01,  8.093E-03, -2.273E-02         F               0         Tower X orientation angle, node 10, rad
         62   -7.057E-03,  9.989E-01,  4.530E-02         F               0         Tower Y orientation angle, node 10, rad
         63    2.307E-02, -4.513E-02,  9.987E-01         F               0         Tower Z orientation angle, node 10, rad
         64    9.997E-01,  8.094E-03, -2.276E-02         F               0         Tower X orientation angle, node 11, rad
         65   -7.056E-03,  9.989E-01,  4.534E-02         F               0         Tower Y orientation angle, node 11, rad
         66    2.310E-02, -4.516E-02,  9.987E-01         F               0         Tower Z orientation angle, node 11, rad
         67   -2.714E-06                                 F               0         Tower X translation velocity, node 1, m/s
         68   -1.179E-06                                 F               0         Tower Y translation velocity, node 1, m/s
         69    0.000E+00                                 F               0         Tower Z translation velocity, node 1, m/s
         70   -7.384E-06                                 F               0         Tower X translation velocity, node 2, m/s
         71   -4.726E-05                                 F               0         Tower Y translation velocity, node 2, m/s
         72   -1.911E-06                                 F               0         Tower Z translation velocity, node 2, m/s
         73   -2.009E-05                                 F               0         Tower X translation velocity, node 3, m/s
         74   -2.102E-04                                 F               0         Tower Y translation velocity, node 3, m/s
         75   -8.779E-06                                 F               0         Tower Z translation velocity, node 3, m/s
         76   -4.031E-05                                 F               0         Tower X translation velocity, node 4, m/s
         77   -4.668E-04                                 F               0         Tower Y translation velocity, node 4, m/s
         78   -1.966E-05                                 F               0         Tower Z translation velocity, node 4, m/s
         79   -6.815E-05                                 F               0         Tower X translation velocity, node 5, m/s
         80   -8.059E-04                                 F               0         Tower Y translation velocity, node 5, m/s
         81   -3.410E-05                                 F               0         Tower Z translation velocity, node 5, m/s
         82   -1.035E-04                                 F               0         Tower X translation velocity, node 6, m/s
         83   -1.216E-03                                 F               0         Tower Y translation velocity, node 6, m/s
         84   -5.162E-05                                 F               0         Tower Z translation velocity, node 6, m/s
         85   -1.455E-04                                 F               0         Tower X translation velocity, node 7, m/s
         86   -1.682E-03                                 F               0         Tower Y translation velocity, node 7, m/s
         87   -7.155E-05                                 F               0         Tower Z translation velocity, node 7, m/s
         88   -1.941E-04                                 F               0         Tower X translation velocity, node 8, m/s
         89   -2.199E-03                                 F               0         Tower Y translation velocity, node 8, m/s
         90   -9.365E-05                                 F               0         Tower Z translation velocity, node 8, m/s
         91   -2.484E-04                                 F               0         Tower X translation velocity, node 9, m/s
         92   -2.754E-03                                 F               0         Tower Y translation velocity, node 9, m/s
         93   -1.174E-04                                 F               0         Tower Z translation velocity, node 9, m/s
         94   -3.070E-04                                 F               0         Tower X translation velocity, node 10, m/s
         95   -3.336E-03                                 F               0         Tower Y translation velocity, node 10, m/s
         96   -1.424E-04                                 F               0         Tower Z translation velocity, node 10, m/s
         97   -3.686E-04                                 F               0         Tower X translation velocity, node 11, m/s
         98   -3.936E-03                                 F               0         Tower Y translation velocity, node 11, m/s
         99   -1.680E-04                                 F               0         Tower Z translation velocity, node 11, m/s
        100    3.040E+00                                 F               0         Hub X translation displacement, node 1, m
        101   -7.291E+00                                 F               0         Hub Y translation displacement, node 1, m
        102    3.569E-02                                 F               0         Hub Z translation displacement, node 1, m
        103    9.918E-01,  1.277E-02, -1.270E-01         F               0         Hub X orientation angle, node 1, rad
        104    1.265E-01, -2.347E-01,  9.638E-01         F               0         Hub Y orientation angle, node 1, rad
        105   -1.751E-02, -9.720E-01, -2.344E-01         F               0         Hub Z orientation angle, node 1, rad
        106    8.864E-01                                 F               0         Hub X rotation velocity, node 1, rad/s
        107    1.141E-02                                 F               0         Hub Y rotation velocity, node 1, rad/s
        108   -1.135E-01                                 F               0         Hub Z rotation velocity, node 1, rad/s
        109    9.876E-01,  1.973E-02, -1.556E-01         F               0         Blade root 1 X orientation angle, node 1, rad
        110    1.558E-01, -2.343E-01,  9.596E-01         F               0         Blade root 1 Y orientation angle, node 1, rad
        111   -1.751E-02, -9.720E-01, -2.344E-01         F               0         Blade root 1 Z orientation angle, node 1, rad
        112    9.937E-01,  3.425E-02, -1.067E-01         F               0         Blade root 2 X orientation angle, node 1, rad
        113   -4.894E-02, -7.237E-01, -6.884E-01         F               0         Blade root 2 Y orientation angle, node 1, rad
        114   -1.008E-01,  6.893E-01, -7.175E-01         F               0         Blade root 2 Z orientation angle, node 1, rad
        115    9.928E-01, -1.569E-02, -1.187E-01         F               0         Blade root 3 X orientation angle, node 1, rad
        116   -1.862E-02,  9.591E-01, -2.825E-01         F               0         Blade root 3 Y orientation angle, node 1, rad
        117    1.183E-01,  2.827E-01,  9.519E-01         F               0         Blade root 3 Z orientation angle, node 1, rad
        118    2.364E+00                                 F               0         Blade 1 X translation displacement, node 1, m
        119   -1.268E+01                                 F               0         Blade 1 Y translation displacement, node 1, m
        120   -6.773E+00                                 F               0         Blade 1 Z translation displacement, node 1, m
        121    2.201E+00                                 F               0         Blade 1 X translation displacement, node 2, m
        122   -1.397E+01                                 F               0         Blade 1 Y translation displacement, node 2, m
        123   -8.413E+00                                 F               0         Blade 1 Z translation displacement, node 2, m
        124   -1.462E-02                                 F               0         Blade 1 X translation displacement, node 3, m
        125   -3.162E+01                                 F               0         Blade 1 Y translation displacement, node 3, m
        126   -3.072E+01                                 F               0         Blade 1 Z translation displacement, node 3, m
        127   -4.866E-01                                 F               0         Blade 1 X translation displacement, node 4, m
        128   -3.538E+01                                 F               0         Blade 1 Y translation displacement, node 4, m
        129   -3.547E+01                                 F               0         Blade 1 Z translation displacement, node 4, m
        130   -9.587E-01                                 F               0         Blade 1 X translation displacement, node 5, m
        131   -3.914E+01                                 F               0         Blade 1 Y translation displacement, node 5, m
        132   -4.023E+01                                 F               0         Blade 1 Z translation displacement, node 5, m
        133   -1.431E+00                                 F               0         Blade 1 X translation displacement, node 6, m
        134   -4.290E+01                                 F               0         Blade 1 Y translation displacement, node 6, m
        135   -4.498E+01                                 F               0         Blade 1 Z translation displacement, node 6, m
        136   -1.903E+00                                 F               0         Blade 1 X translation displacement, node 7, m
        137   -4.665E+01                                 F               0         Blade 1 Y translation displacement, node 7, m
        138   -4.973E+01                                 F               0         Blade 1 Z translation displacement, node 7, m
        139   -2.375E+00                                 F               0         Blade 1 X translation displacement, node 8, m
        140   -5.041E+01                                 F               0         Blade 1 Y translation displacement, node 8, m
        141   -5.449E+01                                 F               0         Blade 1 Z translation displacement, node 8, m
        142   -2.847E+00                                 F               0         Blade 1 X translation displacement, node 9, m
        143   -5.417E+01                                 F               0         Blade 1 Y translation displacement, node 9, m
        144   -5.924E+01                                 F               0         Blade 1 Z translation displacement, node 9, m
        145   -3.319E+00                                 F               0         Blade 1 X translation displacement, node 10, m
        146   -5.793E+01                                 F               0         Blade 1 Y translation displacement, node 10, m
        147   -6.399E+01                                 F               0         Blade 1 Z translation displacement, node 10, m
        148   -3.791E+00                                 F               0         Blade 1 X translation displacement, node 11, m
        149   -6.169E+01                                 F               0         Blade 1 Y translation displacement, node 11, m
        150   -6.875E+01                                 F               0         Blade 1 Z translation displacement, node 11, m
        151   -4.263E+00                                 F               0         Blade 1 X translation displacement, node 12, m
        152   -6.545E+01                                 F               0         Blade 1 Y translation displacement, node 12, m
        153   -7.350E+01                                 F               0         Blade 1 Z translation displacement, node 12, m
        154   -4.735E+00                                 F               0         Blade 1 X translation displacement, node 13, m
        155   -6.921E+01                                 F               0         Blade 1 Y translation displacement, node 13, m
        156   -7.825E+01                                 F               0         Blade 1 Z translation displacement, node 13, m
        157   -5.207E+00                                 F               0         Blade 1 X translation displacement, node 14, m
        158   -7.297E+01                                 F               0         Blade 1 Y translation displacement, node 14, m
        159   -8.301E+01                                 F               0         Blade 1 Z translation displacement, node 14, m
        160   -5.679E+00                                 F               0         Blade 1 X translation displacement, node 15, m
        161   -7.673E+01                                 F               0         Blade 1 Y translation displacement, node 15, m
        162   -8.776E+01                                 F               0         Blade 1 Z translation displacement, node 15, m
        163   -6.151E+00                                 F               0         Blade 1 X translation displacement, node 16, m
        164   -8.049E+01                                 F               0         Blade 1 Y translation displacement, node 16, m
        165   -9.251E+01                                 F               0         Blade 1 Z translation displacement, node 16, m
        166   -6.623E+00                                 F               0         Blade 1 X translation displacement, node 17, m
        167   -8.425E+01                                 F               0         Blade 1 Y translation displacement, node 17, m
        168   -9.727E+01                                 F               0         Blade 1 Z translation displacement, node 17, m
        169   -7.095E+00                                 F               0         Blade 1 X translation displacement, node 18, m
        170   -8.801E+01                                 F               0         Blade 1 Y translation displacement, node 18, m
        171   -1.020E+02                                 F               0         Blade 1 Z translation displacement, node 18, m
        172   -7.567E+00                                 F               0         Blade 1 X translation displacement, node 19, m
        173   -9.177E+01                                 F               0         Blade 1 Y translation displacement, node 19, m
        174   -1.068E+02                                 F               0         Blade 1 Z translation displacement, node 19, m
        175   -8.039E+00                                 F               0         Blade 1 X translation displacement, node 20, m
        176   -9.553E+01                                 F               0         Blade 1 Y translation displacement, node 20, m
        177   -1.115E+02                                 F               0         Blade 1 Z translation displacement, node 20, m
        178   -8.511E+00                                 F               0         Blade 1 X translation displacement, node 21, m
        179   -9.928E+01                                 F               0         Blade 1 Y translation displacement, node 21, m
        180   -1.163E+02                                 F               0         Blade 1 Z translation displacement, node 21, m
        181   -8.983E+00                                 F               0         Blade 1 X translation displacement, node 22, m
        182   -1.030E+02                                 F               0         Blade 1 Y translation displacement, node 22, m
        183   -1.210E+02                                 F               0         Blade 1 Z translation displacement, node 22, m
        184   -9.455E+00                                 F               0         Blade 1 X translation displacement, node 23, m
        185   -1.068E+02                                 F               0         Blade 1 Y translation displacement, node 23, m
        186   -1.258E+02                                 F               0         Blade 1 Z translation displacement, node 23, m
        187   -9.927E+00                                 F               0         Blade 1 X translation displacement, node 24, m
        188   -1.106E+02                                 F               0         Blade 1 Y translation displacement, node 24, m
        189   -1.305E+02                                 F               0         Blade 1 Z translation displacement, node 24, m
        190   -1.040E+01                                 F               0         Blade 1 X translation displacement, node 25, m
        191   -1.143E+02                                 F               0         Blade 1 Y translation displacement, node 25, m
        192   -1.353E+02                                 F               0         Blade 1 Z translation displacement, node 25, m
        193   -1.087E+01                                 F               0         Blade 1 X translation displacement, node 26, m
        194   -1.181E+02                                 F               0         Blade 1 Y translation displacement, node 26, m
        195   -1.400E+02                                 F               0         Blade 1 Z translation displacement, node 26, m
        196   -1.134E+01                                 F               0         Blade 1 X translation displacement, node 27, m
        197   -1.218E+02                                 F               0         Blade 1 Y translation displacement, node 27, m
        198   -1.448E+02                                 F               0         Blade 1 Z translation displacement, node 27, m
        199   -1.174E+01                                 F               0         Blade 1 X translation displacement, node 28, m
        200   -1.250E+02                                 F               0         Blade 1 Y translation displacement, node 28, m
        201   -1.488E+02                                 F               0         Blade 1 Z translation displacement, node 28, m
        202    8.079E-01,  1.244E-01, -5.760E-01         F               0         Blade 1 X orientation angle, node 1, rad
        203    5.891E-01, -1.995E-01,  7.831E-01         F               0         Blade 1 Y orientation angle, node 1, rad
        204   -1.751E-02, -9.720E-01, -2.344E-01         F               0         Blade 1 Z orientation angle, node 1, rad
        205    8.079E-01,  1.244E-01, -5.760E-01         F               0         Blade 1 X orientation angle, node 2, rad
        206    5.891E-01, -1.995E-01,  7.831E-01         F               0         Blade 1 Y orientation angle, node 2, rad
        207   -1.751E-02, -9.720E-01, -2.344E-01         F               0         Blade 1 Z orientation angle, node 2, rad
        208    9.245E-01,  7.356E-02, -3.740E-01         F               0         Blade 1 X orientation angle, node 3, rad
        209    3.808E-01, -2.233E-01,  8.973E-01         F               0         Blade 1 Y orientation angle, node 3, rad
        210   -1.751E-02, -9.720E-01, -2.344E-01         F               0         Blade 1 Z orientation angle, node 3, rad
        211    9.397E-01,  6.407E-02, -3.358E-01         F               0         Blade 1 X orientation angle, node 4, rad
        212    3.414E-01, -2.262E-01,  9.123E-01         F               0         Blade 1 Y orientation angle, node 4, rad
        213   -1.751E-02, -9.720E-01, -2.344E-01         F               0         Blade 1 Z orientation angle, node 4, rad
        214    9.506E-01,  5.653E-02, -3.054E-01         F               0         Blade 1 X orientation angle, node 5, rad
        215    3.101E-01, -2.282E-01,  9.229E-01         F               0         Blade 1 Y orientation angle, node 5, rad
        216   -1.751E-02, -9.720E-01, -2.344E-01         F               0         Blade 1 Z orientation angle, node 5, rad
        217    9.584E-01,  5.046E-02, -2.808E-01         F               0         Blade 1 X orientation angle, node 6, rad
        218    2.847E-01, -2.296E-01,  9.307E-01         F               0         Blade 1 Y orientation angle, node 6, rad
        219   -1.751E-02, -9.720E-01, -2.344E-01         F               0         Blade 1 Z orientation angle, node 6, rad
        220    9.644E-01,  4.544E-02, -2.604E-01         F               0         Blade 1 X orientation angle, node 7, rad
        221    2.638E-01, -2.307E-01,  9.366E-01         F               0         Blade 1 Y orientation angle, node 7, rad
        222   -1.751E-02, -9.720E-01, -2.344E-01         F               0         Blade 1 Z orientation angle, node 7, rad
        223    9.691E-01,  4.124E-02, -2.434E-01         F               0         Blade 1 X orientation angle, node 8, rad
        224    2.462E-01, -2.314E-01,  9.412E-01         F               0         Blade 1 Y orientation angle, node 8, rad
        225   -1.751E-02, -9.720E-01, -2.344E-01         F               0         Blade 1 Z orientation angle, node 8, rad
        226    9.727E-01,  3.768E-02, -2.289E-01         F               0         Blade 1 X orientation angle, node 9, rad
        227    2.313E-01, -2.320E-01,  9.448E-01         F               0         Blade 1 Y orientation angle, node 9, rad