
Linearized model: Predictions were generated on 24-Jan-2024 at 11:24:37 using OpenFAST, compiled as a 64-bit application using single precision at commit v3.5.1
 linked with  NWTC Subroutine Library; ElastoDyn; InflowWind; AeroDyn; ServoDyn; HydroDyn; MAP++ (<1.20.10>, <Oct-20-2023>)

Description from the FAST input file: CCT-9 Campign 4 model. Input files to be run with OpenFAST 3.5.0. GitHub branch from Lu Wang (https://github.com/luwang00/openfast/tree/dev) compiled on March 7, 2023.

Simulation information:
   Simulation time:                   500.0000 s
   Rotor Speed:                         0.8937 rad/s
   Azimuth:                             1.5403 rad
   Wind Speed:                         10.0000 m/s
   Number of continuous states:         0
   Number of discrete states:           0
   Number of constraint states:         0
   Number of inputs:                 1746
   Number of outputs:                   4
   Jacobians included in this file?    No

Order of inputs:
     Column   Operating Point                     Rotating Frame? Derivative Order Description
   ---------- ---------------                     --------------- ---------------- -----------
          1    1.535E-01                                 F               0         Tower X translation displacement, node 1, m
          2   -1.355E+00                                 F               0         Tower Y translation displacement, node 1, m
          3   -4.807E-02                                 F               0         Tower Z translation displacement, node 1, m
          4    3.903E-01                                 F               0         Tower X translation displacement, node 2, m
          5   -1.889E+00                                 F               0         Tower Y translation displacement, node 2, m
          6   -6.192E-02                                 F               0         Tower Z translation displacement, node 2, m
          7    6.403E-01                                 F               0         Tower X translation displacement, node 3, m
          8   -2.429E+00                                 F               0         Tower Y translation displacement, node 3, m
          9   -7.625E-02                                 F               0         Tower Z translation displacement, node 3, m
         10    9.003E-01                                 F               0         Tower X translation displacement, node 4, m
         11   -2.973E+00                                 F               0         Tower Y translation displacement, node 4, m
         12   -9.096E-02                                 F               0         Tower Z translation displacement, node 4, m
         13    1.168E+00                                 F               0         Tower X translation displacement, node 5, m
         14   -3.520E+00                                 F               0         Tower Y translation displacement, node 5, m
         15   -1.060E-01                                 F               0         Tower Z translation displacement, node 5, m
         16    1.442E+00                                 F               0         Tower X translation displacement, node 6, m
         17   -4.070E+00                                 F               0         Tower Y translation displacement, node 6, m
         18   -1.213E-01                                 F               0         Tower Z translation displacement, node 6, m
         19    1.720E+00                                 F               0         Tower X translation displacement, node 7, m
         20   -4.623E+00                                 F               0         Tower Y translation displacement, node 7, m
         21   -1.368E-01                                 F               0         Tower Z translation displacement, node 7, m
         22    2.002E+00                                 F               0         Tower X translation displacement, node 8, m
         23   -5.177E+00                                 F               0         Tower Y translation displacement, node 8, m
         24   -1.524E-01                                 F               0         Tower Z translation displacement, node 8, m
         25    2.285E+00                                 F               0         Tower X translation displacement, node 9, m
         26   -5.733E+00                                 F               0         Tower Y translation displacement, node 9, m
         27   -1.682E-01                                 F               0         Tower Z translation displacement, node 9, m
         28    2.570E+00                                 F               0         Tower X translation displacement, node 10, m
         29   -6.290E+00                                 F               0         Tower Y translation displacement, node 10, m
         30   -1.841E-01                                 F               0         Tower Z translation displacement, node 10, m
         31    2.855E+00                                 F               0         Tower X translation displacement, node 11, m
         32   -6.848E+00                                 F               0         Tower Y translation displacement, node 11, m
         33   -2.000E-01                                 F               0         Tower Z translation displacement, node 11, m
         34    9.998E-01,  7.903E-03, -1.840E-02         F               0         Tower X orientation angle, node 1, rad
         35   -7.101E-03,  9.990E-01,  4.325E-02         F               0         Tower Y orientation angle, node 1, rad
         36    1.873E-02, -4.311E-02,  9.989E-01         F               0         Tower Z orientation angle, node 1, rad
         37    9.998E-01,  7.947E-03, -1.942E-02         F               0         Tower X orientation angle, node 2, rad
         38   -7.093E-03,  9.990E-01,  4.365E-02         F               0         Tower Y orientation angle, node 2, rad
         39    1.975E-02, -4.350E-02,  9.989E-01         F               0         Tower Z orientation angle, node 2, rad
         40    9.998E-01,  7.985E-03, -2.030E-02         F               0         Tower X orientation angle, node 3, rad
         41   -7.086E-03,  9.990E-01,  4.400E-02         F               0         Tower Y orientation angle, node 3, rad
         42    2.063E-02, -4.385E-02,  9.988E-01         F               0         Tower Z orientation angle, node 3, rad
         43    9.997E-01,  8.017E-03, -2.101E-02         F               0         Tower X orientation angle, node 4, rad
         44   -7.079E-03,  9.990E-01,  4.431E-02         F               0         Tower Y orientation angle, node 4, rad
         45    2.135E-02, -4.415E-02,  9.988E-01         F               0         Tower Z orientation angle, node 4, rad
         46    9.997E-01,  8.042E-03, -2.158E-02         F               0         Tower X orientation angle, node 5, rad
         47   -7.074E-03,  9.990E-01,  4.458E-02         F               0         Tower Y orientation angle, node 5, rad
         48    2.192E-02, -4.441E-02,  9.988E-01         F               0         Tower Z orientation angle, node 5, rad
         49    9.997E-01,  8.062E-03, -2.202E-02         F               0         Tower X orientation angle, node 6, rad
         50   -7.069E-03,  9.990E-01,  4.480E-02         F               0         Tower Y orientation angle, node 6, rad
         51    2.236E-02, -4.463E-02,  9.988E-01         F               0         Tower Z orientation angle, node 6, rad
         52    9.997E-01,  8.075E-03, -2.232E-02         F               0         Tower X orientation angle, node 7, rad
         53   -7.065E-03,  9.990E-01,  4.498E-02         F               0         Tower Y orientation angle, node 7, rad
         54    2.266E-02, -4.481E-02,  9.987E-01         F               0         Tower Z orientation angle, node 7, rad
         55    9.997E-01,  8.085E-03, -2.253E-02         F               0         Tower X orientation angle, node 8, rad
         56   -7.062E-03,  9.990E-01,  4.512E-02         F               0         Tower Y orientation angle, node 8, rad
         57    2.287E-02, -4.495E-02,  9.987E-01         F               0         Tower Z orientation angle, node 8, rad
         58    9.997E-01,  8.091E-03, -2.266E-02         F               0         Tower X orientation angle, node 9, rad
         59   -7.060E-03,  9.990E-01,  4.522E-02         F               0         Tower Y orientation angle, node 9, rad
         60    2.300E-02, -4.505E-02,  9.987E-01         F               0         Tower Z orientation angle, node 9, rad
         61    9.997E-01,  8.094E-03, -2.273E-02         F               0         Tower X orientation angle, node 10, rad
         62   -7.058E-03,  9.989E-01,  4.529E-02         F               0         Tower Y orientation angle, node 10, rad
         63    2.307E-02, -4.511E-02,  9.987E-01         F               0         Tower Z orientation angle, node 10, rad
         64    9.997E-01,  8.095E-03, -2.276E-02         F               0         Tower X orientation angle, node 11, rad
         65   -7.057E-03,  9.989E-01,  4.532E-02         F               0         Tower Y orientation angle, node 11, rad
         66    2.310E-02, -4.515E-02,  9.987E-01         F               0         Tower Z orientation angle, node 11, rad
         67   -3.189E-06                                 F               0         Tower X translation velocity, node 1, m/s
         68   -1.385E-06                                 F               0         Tower Y translation velocity, node 1, m/s
         69    0.000E+00                                 F               0         Tower Z translation velocity, node 1, m/s
         70   -7.879E-06                                 F               0         Tower X translation velocity, node 2, m/s
         71   -5.127E-05                                 F               0         Tower Y translation velocity, node 2, m/s
         72   -2.076E-06                                 F               0         Tower Z translation velocity, node 2, m/s
         73   -1.917E-05                                 F               0         Tower X translation velocity, node 3, m/s
         74   -2.274E-04                                 F               0         Tower Y translation velocity, node 3, m/s
         75   -9.551E-06                                 F               0         Tower Z translation velocity, node 3, m/s
         76   -3.584E-05                                 F               0         Tower X translation velocity, node 4, m/s
         77   -5.048E-04                                 F               0         Tower Y translation velocity, node 4, m/s
         78   -2.143E-05                                 F               0         Tower Z translation velocity, node 4, m/s
         79   -5.731E-05                                 F               0         Tower X translation velocity, node 5, m/s
         80   -8.714E-04                                 F               0         Tower Y translation velocity, node 5, m/s
         81   -3.722E-05                                 F               0         Tower Z translation velocity, node 5, m/s
         82   -8.298E-05                                 F               0         Tower X translation velocity, node 6, m/s
         83   -1.315E-03                                 F               0         Tower Y translation velocity, node 6, m/s
         84   -5.643E-05                                 F               0         Tower Z translation velocity, node 6, m/s
         85   -1.120E-04                                 F               0         Tower X translation velocity, node 7, m/s
         86   -1.819E-03                                 F               0         Tower Y translation velocity, node 7, m/s
         87   -7.833E-05                                 F               0         Tower Z translation velocity, node 7, m/s
         88   -1.441E-04                                 F               0         Tower X translation velocity, node 8, m/s
         89   -2.377E-03                                 F               0         Tower Y translation velocity, node 8, m/s
         90   -1.027E-04                                 F               0         Tower Z translation velocity, node 8, m/s
         91   -1.786E-04                                 F               0         Tower X translation velocity, node 9, m/s
         92   -2.976E-03                                 F               0         Tower Y translation velocity, node 9, m/s
         93   -1.289E-04                                 F               0         Tower Z translation velocity, node 9, m/s
         94   -2.148E-04                                 F               0         Tower X translation velocity, node 10, m/s
         95   -3.606E-03                                 F               0         Tower Y translation velocity, node 10, m/s
         96   -1.565E-04                                 F               0         Tower Z translation velocity, node 10, m/s
         97   -2.521E-04                                 F               0         Tower X translation velocity, node 11, m/s
         98   -4.253E-03                                 F               0         Tower Y translation velocity, node 11, m/s
         99   -1.849E-04                                 F               0         Tower Z translation velocity, node 11, m/s
        100    3.040E+00                                 F               0         Hub X translation displacement, node 1, m
        101   -7.290E+00                                 F               0         Hub Y translation displacement, node 1, m
        102    3.575E-02                                 F               0         Hub Z translation displacement, node 1, m
        103    9.918E-01,  1.277E-02, -1.270E-01         F               0         Hub X orientation angle, node 1, rad
        104    1.272E-01, -1.354E-02,  9.918E-01         F               0         Hub Y orientation angle, node 1, rad
        105    1.095E-02, -9.998E-01, -1.505E-02         F               0         Hub Z orientation angle, node 1, rad
        106    8.864E-01                                 F               0         Hub X rotation velocity, node 1, rad/s
        107    1.141E-02                                 F               0         Hub Y rotation velocity, node 1, rad/s
        108   -1.135E-01                                 F               0         Hub Z rotation velocity, node 1, rad/s
        109    9.876E-01,  1.317E-02, -1.564E-01         F               0         Blade root 1 X orientation angle, node 1, rad
        110    1.566E-01, -1.315E-02,  9.876E-01         F               0         Blade root 1 Y orientation angle, node 1, rad
        111    1.095E-02, -9.998E-01, -1.505E-02         F               0         Blade root 1 Z orientation angle, node 1, rad
        112    9.930E-01,  3.825E-02, -1.119E-01         F               0         Blade root 2 X orientation angle, node 1, rad
        113   -2.467E-02, -8.583E-01, -5.125E-01         F               0         Blade root 2 Y orientation angle, node 1, rad
        114   -1.156E-01,  5.116E-01, -8.514E-01         F               0         Blade root 2 Z orientation angle, node 1, rad
        115    9.935E-01, -1.312E-02, -1.126E-01         F               0         Blade root 3 X orientation angle, node 1, rad
        116   -4.362E-02,  8.726E-01, -4.864E-01         F               0         Blade root 3 Y orientation angle, node 1, rad
        117    1.047E-01,  4.882E-01,  8.664E-01         F               0         Blade root 3 Z orientation angle, node 1, rad
        118    2.521E+00                                 F               0         Blade 1 X translation displacement, node 1, m
        119   -1.283E+01                                 F               0         Blade 1 Y translation displacement, node 1, m
        120   -5.557E+00                                 F               0         Blade 1 Z translation displacement, node 1, m
        121    2.396E+00                                 F               0         Blade 1 X translation displacement, node 2, m
        122   -1.416E+01                                 F               0         Blade 1 Y translation displacement, node 2, m
        123   -6.905E+00                                 F               0         Blade 1 Z translation displacement, node 2, m
        124    6.976E-01                                 F               0         Blade 1 X translation displacement, node 3, m
        125   -3.231E+01                                 F               0         Blade 1 Y translation displacement, node 3, m
        126   -2.523E+01                                 F               0         Blade 1 Z translation displacement, node 3, m
        127    3.357E-01                                 F               0         Blade 1 X translation displacement, node 4, m
        128   -3.618E+01                                 F               0         Blade 1 Y translation displacement, node 4, m
        129   -2.914E+01                                 F               0         Blade 1 Z translation displacement, node 4, m
        130   -2.629E-02                                 F               0         Blade 1 X translation displacement, node 5, m
        131   -4.005E+01                                 F               0         Blade 1 Y translation displacement, node 5, m
        132   -3.304E+01                                 F               0         Blade 1 Z translation displacement, node 5, m
        133   -3.882E-01                                 F               0         Blade 1 X translation displacement, node 6, m
        134   -4.391E+01                                 F               0         Blade 1 Y translation displacement, node 6, m
        135   -3.695E+01                                 F               0         Blade 1 Z translation displacement, node 6, m
        136   -7.501E-01                                 F               0         Blade 1 X translation displacement, node 7, m
        137   -4.778E+01                                 F               0         Blade 1 Y translation displacement, node 7, m
        138   -4.085E+01                                 F               0         Blade 1 Z translation displacement, node 7, m
        139   -1.112E+00                                 F               0         Blade 1 X translation displacement, node 8, m
        140   -5.165E+01                                 F               0         Blade 1 Y translation displacement, node 8, m
        141   -4.476E+01                                 F               0         Blade 1 Z translation displacement, node 8, m
        142   -1.474E+00                                 F               0         Blade 1 X translation displacement, node 9, m
        143   -5.552E+01                                 F               0         Blade 1 Y translation displacement, node 9, m
        144   -4.866E+01                                 F               0         Blade 1 Z translation displacement, node 9, m
        145   -1.836E+00                                 F               0         Blade 1 X translation displacement, node 10, m
        146   -5.938E+01                                 F               0         Blade 1 Y translation displacement, node 10, m
        147   -5.256E+01                                 F               0         Blade 1 Z translation displacement, node 10, m
        148   -2.198E+00                                 F               0         Blade 1 X translation displacement, node 11, m
        149   -6.325E+01                                 F               0         Blade 1 Y translation displacement, node 11, m
        150   -5.647E+01                                 F               0         Blade 1 Z translation displacement, node 11, m
        151   -2.560E+00                                 F               0         Blade 1 X translation displacement, node 12, m
        152   -6.712E+01                                 F               0         Blade 1 Y translation displacement, node 12, m
        153   -6.037E+01                                 F               0         Blade 1 Z translation displacement, node 12, m
        154   -2.922E+00                                 F               0         Blade 1 X translation displacement, node 13, m
        155   -7.098E+01                                 F               0         Blade 1 Y translation displacement, node 13, m
        156   -6.428E+01                                 F               0         Blade 1 Z translation displacement, node 13, m
        157   -3.284E+00                                 F               0         Blade 1 X translation displacement, node 14, m
        158   -7.485E+01                                 F               0         Blade 1 Y translation displacement, node 14, m
        159   -6.818E+01                                 F               0         Blade 1 Z translation displacement, node 14, m
        160   -3.646E+00                                 F               0         Blade 1 X translation displacement, node 15, m
        161   -7.872E+01                                 F               0         Blade 1 Y translation displacement, node 15, m
        162   -7.209E+01                                 F               0         Blade 1 Z translation displacement, node 15, m
        163   -4.008E+00                                 F               0         Blade 1 X translation displacement, node 16, m
        164   -8.258E+01                                 F               0         Blade 1 Y translation displacement, node 16, m
        165   -7.599E+01                                 F               0         Blade 1 Z translation displacement, node 16, m
        166   -4.370E+00                                 F               0         Blade 1 X translation displacement, node 17, m
        167   -8.645E+01                                 F               0         Blade 1 Y translation displacement, node 17, m
        168   -7.990E+01                                 F               0         Blade 1 Z translation displacement, node 17, m
        169   -4.732E+00                                 F               0         Blade 1 X translation displacement, node 18, m
        170   -9.032E+01                                 F               0         Blade 1 Y translation displacement, node 18, m
        171   -8.380E+01                                 F               0         Blade 1 Z translation displacement, node 18, m
        172   -5.094E+00                                 F               0         Blade 1 X translation displacement, node 19, m
        173   -9.419E+01                                 F               0         Blade 1 Y translation displacement, node 19, m
        174   -8.771E+01                                 F               0         Blade 1 Z translation displacement, node 19, m
        175   -5.456E+00                                 F               0         Blade 1 X translation displacement, node 20, m
        176   -9.805E+01                                 F               0         Blade 1 Y translation displacement, node 20, m
        177   -9.161E+01                                 F               0         Blade 1 Z translation displacement, node 20, m
        178   -5.817E+00                                 F               0         Blade 1 X translation displacement, node 21, m
        179   -1.019E+02                                 F               0         Blade 1 Y translation displacement, node 21, m
        180   -9.552E+01                                 F               0         Blade 1 Z translation displacement, node 21, m
        181   -6.179E+00                                 F               0         Blade 1 X translation displacement, node 22, m
        182   -1.058E+02                                 F               0         Blade 1 Y translation displacement, node 22, m
        183   -9.942E+01                                 F               0         Blade 1 Z translation displacement, node 22, m
        184   -6.541E+00                                 F               0         Blade 1 X translation displacement, node 23, m
        185   -1.097E+02                                 F               0         Blade 1 Y translation displacement, node 23, m
        186   -1.033E+02                                 F               0         Blade 1 Z translation displacement, node 23, m
        187   -6.903E+00                                 F               0         Blade 1 X translation displacement, node 24, m
        188   -1.135E+02                                 F               0         Blade 1 Y translation displacement, node 24, m
        189   -1.072E+02                                 F               0         Blade 1 Z translation displacement, node 24, m
        190   -7.265E+00                                 F               0         Blade 1 X translation displacement, node 25, m
        191   -1.174E+02                                 F               0         Blade 1 Y translation displacement, node 25, m
        192   -1.111E+02                                 F               0         Blade 1 Z translation displacement, node 25, m
        193   -7.627E+00                                 F               0         Blade 1 X translation displacement, node 26, m
        194   -1.213E+02                                 F               0         Blade 1 Y translation displacement, node 26, m
        195   -1.150E+02                                 F               0         Blade 1 Z translation displacement, node 26, m
        196   -7.989E+00                                 F               0         Blade 1 X translation displacement, node 27, m
        197   -1.251E+02                                 F               0         Blade 1 Y translation displacement, node 27, m
        198   -1.189E+02                                 F               0         Blade 1 Z translation displacement, node 27, m
        199   -8.296E+00                                 F               0         Blade 1 X translation displacement, node 28, m
        200   -1.284E+02                                 F               0         Blade 1 Y translation displacement, node 28, m
        201   -1.223E+02                                 F               0         Blade 1 Z translation displacement, node 28, m
        202    8.075E-01,  1.772E-02, -5.895E-01         F               0         Blade 1 X orientation angle, node 1, rad
        203    5.897E-01, -5.701E-03,  8.076E-01         F               0         Blade 1 Y orientation angle, node 1, rad
        204    1.095E-02, -9.998E-01, -1.505E-02         F               0         Blade 1 Z orientation angle, node 1, rad
        205    8.075E-01,  1.772E-02, -5.895E-01         F               0         Blade 1 X orientation angle, node 2, rad
        206    5.897E-01, -5.701E-03,  8.076E-01         F               0         Blade 1 Y orientation angle, node 2, rad
        207    1.095E-02, -9.998E-01, -1.505E-02         F               0         Blade 1 Z orientation angle, node 2, rad
        208    9.243E-01,  1.586E-02, -3.813E-01         F               0         Blade 1 X orientation angle, node 3, rad
        209    3.815E-01, -9.738E-03,  9.243E-01         F               0         Blade 1 Y orientation angle, node 3, rad
        210    1.095E-02, -9.998E-01, -1.505E-02         F               0         Blade 1 Z orientation angle, node 3, rad
        211    9.396E-01,  1.543E-02, -3.420E-01         F               0         Blade 1 X orientation angle, node 4, rad
        212    3.421E-01, -1.040E-02,  9.396E-01         F               0         Blade 1 Y orientation angle, node 4, rad
        213    1.095E-02, -9.998E-01, -1.505E-02         F               0         Blade 1 Z orientation angle, node 4, rad
        214    9.504E-01,  1.508E-02, -3.106E-01         F               0         Blade 1 X orientation angle, node 5, rad
        215    3.108E-01, -1.090E-02,  9.504E-01         F               0         Blade 1 Y orientation angle, node 5, rad
        216    1.095E-02, -9.998E-01, -1.505E-02         F               0         Blade 1 Z orientation angle, node 5, rad
        217    9.583E-01,  1.479E-02, -2.853E-01         F               0         Blade 1 X orientation angle, node 6, rad
        218    2.855E-01, -1.130E-02,  9.583E-01         F               0         Blade 1 Y orientation angle, node 6, rad
        219    1.095E-02, -9.998E-01, -1.505E-02         F               0         Blade 1 Z orientation angle, node 6, rad
        220    9.643E-01,  1.454E-02, -2.643E-01         F               0         Blade 1 X orientation angle, node 7, rad
        221    2.645E-01, -1.162E-02,  9.643E-01         F               0         Blade 1 Y orientation angle, node 7, rad
        222    1.095E-02, -9.998E-01, -1.505E-02         F               0         Blade 1 Z orientation angle, node 7, rad
        223    9.690E-01,  1.432E-02, -2.468E-01         F               0         Blade 1 X orientation angle, node 8, rad
        224    2.470E-01, -1.188E-02,  9.690E-01         F               0         Blade 1 Y orientation angle, node 8, rad
        225    1.095E-02, -9.998E-01, -1.505E-02         F               0         Blade 1 Z orientation angle, node 8, rad
        226    9.726E-01,  1.414E-02, -2.319E-01         F               0         Blade 1 X orientation angle, node 9, rad
        227    2.320E-01, -1.210E-02,  9.726E-01         F               0         Blade 1 Y orientation angle, node 9, rad