
Linearized model: Predictions were generated on 24-Jan-2024 at 11:24:37 using OpenFAST, compiled as a 64-bit application using single precision at commit v3.5.1
 linked with  NWTC Subroutine Library; ElastoDyn; InflowWind; AeroDyn; ServoDyn; HydroDyn; MAP++ (<1.20.10>, <Oct-20-2023>)

Description from the FAST input file: CCT-9 Campign 4 model. Input files to be run with OpenFAST 3.5.0. GitHub branch from Lu Wang (https://github.com/luwang00/openfast/tree/dev) compiled on March 7, 2023.

Simulation information:
   Simulation time:                   501.0000 s
   Rotor Speed:                         0.8939 rad/s
   Azimuth:                             2.4340 rad
   Wind Speed:                         10.0000 m/s
   Number of continuous states:         0
   Number of discrete states:           0
   Number of constraint states:         0
   Number of inputs:                 1746
   Number of outputs:                   4
   Jacobians included in this file?    No

Order of inputs:
     Column   Operating Point                     Rotating Frame? Derivative Order Description
   ---------- ---------------                     --------------- ---------------- -----------
          1    1.535E-01                                 F               0         Tower X translation displacement, node 1, m
          2   -1.355E+00                                 F               0         Tower Y translation displacement, node 1, m
          3   -4.807E-02                                 F               0         Tower Z translation displacement, node 1, m
          4    3.902E-01                                 F               0         Tower X translation displacement, node 2, m
          5   -1.889E+00                                 F               0         Tower Y translation displacement, node 2, m
          6   -6.192E-02                                 F               0         Tower Z translation displacement, node 2, m
          7    6.403E-01                                 F               0         Tower X translation displacement, node 3, m
          8   -2.429E+00                                 F               0         Tower Y translation displacement, node 3, m
          9   -7.625E-02                                 F               0         Tower Z translation displacement, node 3, m
         10    9.002E-01                                 F               0         Tower X translation displacement, node 4, m
         11   -2.973E+00                                 F               0         Tower Y translation displacement, node 4, m
         12   -9.097E-02                                 F               0         Tower Z translation displacement, node 4, m
         13    1.168E+00                                 F               0         Tower X translation displacement, node 5, m
         14   -3.521E+00                                 F               0         Tower Y translation displacement, node 5, m
         15   -1.060E-01                                 F               0         Tower Z translation displacement, node 5, m
         16    1.442E+00                                 F               0         Tower X translation displacement, node 6, m
         17   -4.071E+00                                 F               0         Tower Y translation displacement, node 6, m
         18   -1.213E-01                                 F               0         Tower Z translation displacement, node 6, m
         19    1.720E+00                                 F               0         Tower X translation displacement, node 7, m
         20   -4.624E+00                                 F               0         Tower Y translation displacement, node 7, m
         21   -1.368E-01                                 F               0         Tower Z translation displacement, node 7, m
         22    2.001E+00                                 F               0         Tower X translation displacement, node 8, m
         23   -5.179E+00                                 F               0         Tower Y translation displacement, node 8, m
         24   -1.525E-01                                 F               0         Tower Z translation displacement, node 8, m
         25    2.285E+00                                 F               0         Tower X translation displacement, node 9, m
         26   -5.736E+00                                 F               0         Tower Y translation displacement, node 9, m
         27   -1.683E-01                                 F               0         Tower Z translation displacement, node 9, m
         28    2.570E+00                                 F               0         Tower X translation displacement, node 10, m
         29   -6.293E+00                                 F               0         Tower Y translation displacement, node 10, m
         30   -1.842E-01                                 F               0         Tower Z translation displacement, node 10, m
         31    2.855E+00                                 F               0         Tower X translation displacement, node 11, m
         32   -6.851E+00                                 F               0         Tower Y translation displacement, node 11, m
         33   -2.001E-01                                 F               0         Tower Z translation displacement, node 11, m
         34    9.998E-01,  7.900E-03, -1.840E-02         F               0         Tower X orientation angle, node 1, rad
         35   -7.098E-03,  9.990E-01,  4.325E-02         F               0         Tower Y orientation angle, node 1, rad
         36    1.873E-02, -4.311E-02,  9.989E-01         F               0         Tower Z orientation angle, node 1, rad
         37    9.998E-01,  7.944E-03, -1.942E-02         F               0         Tower X orientation angle, node 2, rad
         38   -7.090E-03,  9.990E-01,  4.365E-02         F               0         Tower Y orientation angle, node 2, rad
         39    1.975E-02, -4.351E-02,  9.989E-01         F               0         Tower Z orientation angle, node 2, rad
         40    9.998E-01,  7.983E-03, -2.030E-02         F               0         Tower X orientation angle, node 3, rad
         41   -7.083E-03,  9.990E-01,  4.402E-02         F               0         Tower Y orientation angle, node 3, rad
         42    2.063E-02, -4.386E-02,  9.988E-01         F               0         Tower Z orientation angle, node 3, rad
         43    9.997E-01,  8.014E-03, -2.101E-02         F               0         Tower X orientation angle, node 4, rad
         44   -7.077E-03,  9.990E-01,  4.433E-02         F               0         Tower Y orientation angle, node 4, rad
         45    2.135E-02, -4.417E-02,  9.988E-01         F               0         Tower Z orientation angle, node 4, rad
         46    9.997E-01,  8.040E-03, -2.158E-02         F               0         Tower X orientation angle, node 5, rad
         47   -7.071E-03,  9.990E-01,  4.460E-02         F               0         Tower Y orientation angle, node 5, rad
         48    2.192E-02, -4.444E-02,  9.988E-01         F               0         Tower Z orientation angle, node 5, rad
         49    9.997E-01,  8.059E-03, -2.201E-02         F               0         Tower X orientation angle, node 6, rad
         50   -7.066E-03,  9.990E-01,  4.483E-02         F               0         Tower Y orientation angle, node 6, rad
         51    2.235E-02, -4.466E-02,  9.988E-01         F               0         Tower Z orientation angle, node 6, rad
         52    9.997E-01,  8.073E-03, -2.232E-02         F               0         Tower X orientation angle, node 7, rad
         53   -7.062E-03,  9.990E-01,  4.501E-02         F               0         Tower Y orientation angle, node 7, rad
         54    2.266E-02, -4.484E-02,  9.987E-01         F               0         Tower Z orientation angle, node 7, rad
         55    9.997E-01,  8.082E-03, -2.252E-02         F               0         Tower X orientation angle, node 8, rad
         56   -7.059E-03,  9.990E-01,  4.515E-02         F               0         Tower Y orientation angle, node 8, rad
         57    2.287E-02, -4.498E-02,  9.987E-01         F               0         Tower Z orientation angle, node 8, rad
         58    9.997E-01,  8.088E-03, -2.265E-02         F               0         Tower X orientation angle, node 9, rad
         59   -7.056E-03,  9.990E-01,  4.526E-02         F               0         Tower Y orientation angle, node 9, rad
         60    2.300E-02, -4.508E-02,  9.987E-01         F               0         Tower Z orientation angle, node 9, rad
         61    9.997E-01,  8.091E-03, -2.272E-02         F               0         Tower X orientation angle, node 10, rad
         62   -7.055E-03,  9.989E-01,  4.532E-02         F               0         Tower Y orientation angle, node 10, rad
         63    2.307E-02, -4.515E-02,  9.987E-01         F               0         Tower Z orientation angle, node 10, rad
         64    9.997E-01,  8.093E-03, -2.275E-02         F               0         Tower X orientation angle, node 11, rad
         65   -7.054E-03,  9.989E-01,  4.536E-02         F               0         Tower Y orientation angle, node 11, rad
         66    2.310E-02, -4.519E-02,  9.987E-01         F               0         Tower Z orientation angle, node 11, rad
         67   -3.056E-07                                 F               0         Tower X translation velocity, node 1, m/s
         68   -1.328E-07                                 F               0         Tower Y translation velocity, node 1, m/s
         69    0.000E+00                                 F               0         Tower Z translation velocity, node 1, m/s
         70   -6.495E-06                                 F               0         Tower X translation velocity, node 2, m/s
         71   -1.743E-05                                 F               0         Tower Y translation velocity, node 2, m/s
         72   -6.308E-07                                 F               0         Tower Z translation velocity, node 2, m/s
         73   -2.962E-05                                 F               0         Tower X translation velocity, node 3, m/s
         74   -7.898E-05                                 F               0         Tower Y translation velocity, node 3, m/s
         75   -2.855E-06                                 F               0         Tower Z translation velocity, node 3, m/s
         76   -6.862E-05                                 F               0         Tower X translation velocity, node 4, m/s
         77   -1.758E-04                                 F               0         Tower Y translation velocity, node 4, m/s
         78   -6.302E-06                                 F               0         Tower Z translation velocity, node 4, m/s
         79   -1.237E-04                                 F               0         Tower X translation velocity, node 5, m/s
         80   -3.035E-04                                 F               0         Tower Y translation velocity, node 5, m/s
         81   -1.077E-05                                 F               0         Tower Z translation velocity, node 5, m/s
         82   -1.948E-04                                 F               0         Tower X translation velocity, node 6, m/s
         83   -4.577E-04                                 F               0         Tower Y translation velocity, node 6, m/s
         84   -1.607E-05                                 F               0         Tower Z translation velocity, node 6, m/s
         85   -2.799E-04                                 F               0         Tower X translation velocity, node 7, m/s
         86   -6.324E-04                                 F               0         Tower Y translation velocity, node 7, m/s
         87   -2.199E-05                                 F               0         Tower Z translation velocity, node 7, m/s
         88   -3.790E-04                                 F               0         Tower X translation velocity, node 8, m/s
         89   -8.255E-04                                 F               0         Tower Y translation velocity, node 8, m/s
         90   -2.841E-05                                 F               0         Tower Z translation velocity, node 8, m/s
         91   -4.901E-04                                 F               0         Tower X translation velocity, node 9, m/s
         92   -1.033E-03                                 F               0         Tower Y translation velocity, node 9, m/s
         93   -3.520E-05                                 F               0         Tower Z translation velocity, node 9, m/s
         94   -6.106E-04                                 F               0         Tower X translation velocity, node 10, m/s
         95   -1.250E-03                                 F               0         Tower Y translation velocity, node 10, m/s
         96   -4.223E-05                                 F               0         Tower Z translation velocity, node 10, m/s
         97   -7.373E-04                                 F               0         Tower X translation velocity, node 11, m/s
         98   -1.473E-03                                 F               0         Tower Y translation velocity, node 11, m/s
         99   -4.940E-05                                 F               0         Tower Z translation velocity, node 11, m/s
        100    3.039E+00                                 F               0         Hub X translation displacement, node 1, m
        101   -7.293E+00                                 F               0         Hub Y translation displacement, node 1, m
        102    3.553E-02                                 F               0         Hub Z translation displacement, node 1, m
        103    9.918E-01,  1.277E-02, -1.270E-01         F               0         Hub X orientation angle, node 1, rad
        104    8.821E-02, -7.878E-01,  6.096E-01         F               0         Hub Y orientation angle, node 1, rad
        105   -9.228E-02, -6.158E-01, -7.825E-01         F               0         Hub Z orientation angle, node 1, rad
        106    8.866E-01                                 F               0         Hub X rotation velocity, node 1, rad/s
        107    1.141E-02                                 F               0         Hub Y rotation velocity, node 1, rad/s
        108   -1.135E-01                                 F               0         Hub Z rotation velocity, node 1, rad/s
        109    9.888E-01,  3.614E-02, -1.450E-01         F               0         Blade root 1 X orientation angle, node 1, rad
        110    1.176E-01, -7.871E-01,  6.055E-01         F               0         Blade root 1 Y orientation angle, node 1, rad
        111   -9.228E-02, -6.158E-01, -7.825E-01         F               0         Blade root 1 Z orientation angle, node 1, rad
        112    9.951E-01,  1.690E-02, -9.782E-02         F               0         Blade root 2 X orientation angle, node 1, rad
        113   -9.455E-02, -1.390E-01, -9.858E-01         F               0         Blade root 2 Y orientation angle, node 1, rad
        114   -3.025E-02,  9.902E-01, -1.367E-01         F               0         Blade root 2 Z orientation angle, node 1, rad
        115    9.903E-01, -1.474E-02, -1.380E-01         F               0         Blade root 3 X orientation angle, node 1, rad
        116    6.522E-02,  9.272E-01,  3.689E-01         F               0         Blade root 3 Y orientation angle, node 1, rad
        117    1.225E-01, -3.744E-01,  9.192E-01         F               0         Blade root 3 Z orientation angle, node 1, rad
        118    1.949E+00                                 F               0         Blade 1 X translation displacement, node 1, m
        119   -1.071E+01                                 F               0         Blade 1 Y translation displacement, node 1, m
        120   -9.809E+00                                 F               0         Blade 1 Z translation displacement, node 1, m
        121    1.686E+00                                 F               0         Blade 1 X translation displacement, node 2, m
        122   -1.153E+01                                 F               0         Blade 1 Y translation displacement, node 2, m
        123   -1.218E+01                                 F               0         Blade 1 Z translation displacement, node 2, m
        124   -1.886E+00                                 F               0         Blade 1 X translation displacement, node 3, m
        125   -2.271E+01                                 F               0         Blade 1 Y translation displacement, node 3, m
        126   -4.444E+01                                 F               0         Blade 1 Z translation displacement, node 3, m
        127   -2.648E+00                                 F               0         Blade 1 X translation displacement, node 4, m
        128   -2.509E+01                                 F               0         Blade 1 Y translation displacement, node 4, m
        129   -5.131E+01                                 F               0         Blade 1 Z translation displacement, node 4, m
        130   -3.409E+00                                 F               0         Blade 1 X translation displacement, node 5, m
        131   -2.747E+01                                 F               0         Blade 1 Y translation displacement, node 5, m
        132   -5.818E+01                                 F               0         Blade 1 Z translation displacement, node 5, m
        133   -4.170E+00                                 F               0         Blade 1 X translation displacement, node 6, m
        134   -2.985E+01                                 F               0         Blade 1 Y translation displacement, node 6, m
        135   -6.506E+01                                 F               0         Blade 1 Z translation displacement, node 6, m
        136   -4.931E+00                                 F               0         Blade 1 X translation displacement, node 7, m
        137   -3.223E+01                                 F               0         Blade 1 Y translation displacement, node 7, m
        138   -7.193E+01                                 F               0         Blade 1 Z translation displacement, node 7, m
        139   -5.692E+00                                 F               0         Blade 1 X translation displacement, node 8, m
        140   -3.461E+01                                 F               0         Blade 1 Y translation displacement, node 8, m
        141   -7.880E+01                                 F               0         Blade 1 Z translation displacement, node 8, m
        142   -6.454E+00                                 F               0         Blade 1 X translation displacement, node 9, m
        143   -3.700E+01                                 F               0         Blade 1 Y translation displacement, node 9, m
        144   -8.568E+01                                 F               0         Blade 1 Z translation displacement, node 9, m
        145   -7.215E+00                                 F               0         Blade 1 X translation displacement, node 10, m
        146   -3.938E+01                                 F               0         Blade 1 Y translation displacement, node 10, m
        147   -9.255E+01                                 F               0         Blade 1 Z translation displacement, node 10, m
        148   -7.976E+00                                 F               0         Blade 1 X translation displacement, node 11, m
        149   -4.176E+01                                 F               0         Blade 1 Y translation displacement, node 11, m
        150   -9.942E+01                                 F               0         Blade 1 Z translation displacement, node 11, m
        151   -8.737E+00                                 F               0         Blade 1 X translation displacement, node 12, m
        152   -4.414E+01                                 F               0         Blade 1 Y translation displacement, node 12, m
        153   -1.063E+02                                 F               0         Blade 1 Z translation displacement, node 12, m
        154   -9.498E+00                                 F               0         Blade 1 X translation displacement, node 13, m
        155   -4.652E+01                                 F               0         Blade 1 Y translation displacement, node 13, m
        156   -1.132E+02                                 F               0         Blade 1 Z translation displacement, node 13, m
        157   -1.026E+01                                 F               0         Blade 1 X translation displacement, node 14, m
        158   -4.890E+01                                 F               0         Blade 1 Y translation displacement, node 14, m
        159   -1.200E+02                                 F               0         Blade 1 Z translation displacement, node 14, m
        160   -1.102E+01                                 F               0         Blade 1 X translation displacement, node 15, m
        161   -5.129E+01                                 F               0         Blade 1 Y translation displacement, node 15, m
        162   -1.269E+02                                 F               0         Blade 1 Z translation displacement, node 15, m
        163   -1.178E+01                                 F               0         Blade 1 X translation displacement, node 16, m
        164   -5.367E+01                                 F               0         Blade 1 Y translation displacement, node 16, m
        165   -1.338E+02                                 F               0         Blade 1 Z translation displacement, node 16, m
        166   -1.254E+01                                 F               0         Blade 1 X translation displacement, node 17, m
        167   -5.605E+01                                 F               0         Blade 1 Y translation displacement, node 17, m
        168   -1.407E+02                                 F               0         Blade 1 Z translation displacement, node 17, m
        169   -1.330E+01                                 F               0         Blade 1 X translation displacement, node 18, m
        170   -5.843E+01                                 F               0         Blade 1 Y translation displacement, node 18, m
        171   -1.475E+02                                 F               0         Blade 1 Z translation displacement, node 18, m
        172   -1.407E+01                                 F               0         Blade 1 X translation displacement, node 19, m
        173   -6.081E+01                                 F               0         Blade 1 Y translation displacement, node 19, m
        174   -1.544E+02                                 F               0         Blade 1 Z translation displacement, node 19, m
        175   -1.483E+01                                 F               0         Blade 1 X translation displacement, node 20, m
        176   -6.319E+01                                 F               0         Blade 1 Y translation displacement, node 20, m
        177   -1.613E+02                                 F               0         Blade 1 Z translation displacement, node 20, m
        178   -1.559E+01                                 F               0         Blade 1 X translation displacement, node 21, m
        179   -6.558E+01                                 F               0         Blade 1 Y translation displacement, node 21, m
        180   -1.682E+02                                 F               0         Blade 1 Z translation displacement, node 21, m
        181   -1.635E+01                                 F               0         Blade 1 X translation displacement, node 22, m
        182   -6.796E+01                                 F               0         Blade 1 Y translation displacement, node 22, m
        183   -1.750E+02                                 F               0         Blade 1 Z translation displacement, node 22, m
        184   -1.711E+01                                 F               0         Blade 1 X translation displacement, node 23, m
        185   -7.034E+01                                 F               0         Blade 1 Y translation displacement, node 23, m
        186   -1.819E+02                                 F               0         Blade 1 Z translation displacement, node 23, m
        187   -1.787E+01                                 F               0         Blade 1 X translation displacement, node 24, m
        188   -7.272E+01                                 F               0         Blade 1 Y translation displacement, node 24, m
        189   -1.888E+02                                 F               0         Blade 1 Z translation displacement, node 24, m
        190   -1.863E+01                                 F               0         Blade 1 X translation displacement, node 25, m
        191   -7.510E+01                                 F               0         Blade 1 Y translation displacement, node 25, m
        192   -1.956E+02                                 F               0         Blade 1 Z translation displacement, node 25, m
        193   -1.939E+01                                 F               0         Blade 1 X translation displacement, node 26, m
        194   -7.749E+01                                 F               0         Blade 1 Y translation displacement, node 26, m
        195   -2.025E+02                                 F               0         Blade 1 Z translation displacement, node 26, m
        196   -2.016E+01                                 F               0         Blade 1 X translation displacement, node 27, m
        197   -7.987E+01                                 F               0         Blade 1 Y translation displacement, node 27, m
        198   -2.094E+02                                 F               0         Blade 1 Z translation displacement, node 27, m
        199   -2.080E+01                                 F               0         Blade 1 X translation displacement, node 28, m
        200   -8.189E+01                                 F               0         Blade 1 Y translation displacement, node 28, m
        201   -2.152E+02                                 F               0         Blade 1 Z translation displacement, node 28, m
        202    8.263E-01,  3.911E-01, -4.052E-01         F               0         Blade 1 X orientation angle, node 1, rad
        203    5.555E-01, -6.840E-01,  4.728E-01         F               0         Blade 1 Y orientation angle, node 1, rad
        204   -9.228E-02, -6.158E-01, -7.825E-01         F               0         Blade 1 Z orientation angle, node 1, rad
        205    8.263E-01,  3.911E-01, -4.052E-01         F               0         Blade 1 X orientation angle, node 2, rad
        206    5.555E-01, -6.840E-01,  4.728E-01         F               0         Blade 1 Y orientation angle, node 2, rad
        207   -9.228E-02, -6.158E-01, -7.825E-01         F               0         Blade 1 Z orientation angle, node 2, rad
        208    9.345E-01,  2.178E-01, -2.816E-01         F               0         Blade 1 X orientation angle, node 3, rad
        209    3.439E-01, -7.572E-01,  5.553E-01         F               0         Blade 1 Y orientation angle, node 3, rad
        210   -9.228E-02, -6.158E-01, -7.825E-01         F               0         Blade 1 Z orientation angle, node 3, rad
        211    9.482E-01,  1.857E-01, -2.579E-01         F               0         Blade 1 X orientation angle, node 4, rad
        212    3.041E-01, -7.657E-01,  5.667E-01         F               0         Blade 1 Y orientation angle, node 4, rad
        213   -9.228E-02, -6.158E-01, -7.825E-01         F               0         Blade 1 Z orientation angle, node 4, rad
        214    9.577E-01,  1.602E-01, -2.390E-01         F               0         Blade 1 X orientation angle, node 5, rad
        215    2.725E-01, -7.715E-01,  5.750E-01         F               0         Blade 1 Y orientation angle, node 5, rad
        216   -9.228E-02, -6.158E-01, -7.825E-01         F               0         Blade 1 Z orientation angle, node 5, rad
        217    9.646E-01,  1.396E-01, -2.237E-01         F               0         Blade 1 X orientation angle, node 6, rad
        218    2.470E-01, -7.754E-01,  5.811E-01         F               0         Blade 1 Y orientation angle, node 6, rad
        219   -9.228E-02, -6.158E-01, -7.825E-01         F               0         Blade 1 Z orientation angle, node 6, rad
        220    9.698E-01,  1.227E-01, -2.109E-01         F               0         Blade 1 X orientation angle, node 7, rad
        221    2.259E-01, -7.783E-01,  5.859E-01         F               0         Blade 1 Y orientation angle, node 7, rad
        222   -9.228E-02, -6.158E-01, -7.825E-01         F               0         Blade 1 Z orientation angle, node 7, rad
        223    9.737E-01,  1.085E-01, -2.003E-01         F               0         Blade 1 X orientation angle, node 8, rad
        224    2.083E-01, -7.804E-01,  5.896E-01         F               0         Blade 1 Y orientation angle, node 8, rad
        225   -9.228E-02, -6.158E-01, -7.825E-01         F               0         Blade 1 Z orientation angle, node 8, rad
        226    9.768E-01,  9.655E-02, -1.912E-01         F               0         Blade 1 X orientation angle, node 9, rad
        227    1.933E-01, -7.820E-01,  5.926E-01         F               0         Blade 1 Y orientation angle, node 9, rad