
Linearized model: Predictions were generated on 24-Jan-2024 at 11:24:37 using OpenFAST, compiled as a 64-bit application using single precision at commit v3.5.1
 linked with  NWTC Subroutine Library; ElastoDyn; InflowWind; AeroDyn; ServoDyn; HydroDyn; MAP++ (<1.20.10>, <Oct-20-2023>)

Description from the FAST input file: CCT-9 Campign 4 model. Input files to be run with OpenFAST 3.5.0. GitHub branch from Lu Wang (https://github.com/luwang00/openfast/tree/dev) compiled on March 7, 2023.

Simulation information:
   Simulation time:                   507.4250 s
   Rotor Speed:                         0.8937 rad/s
   Azimuth:                             1.8942 rad
   Wind Speed:                         10.0000 m/s
   Number of continuous states:         0
   Number of discrete states:           0
   Number of constraint states:         0
   Number of inputs:                 1746
   Number of outputs:                   4
   Jacobians included in this file?    No

Order of inputs:
     Column   Operating Point                     Rotating Frame? Derivative Order Description
   ---------- ---------------                     --------------- ---------------- -----------
          1    1.535E-01                                 F               0         Tower X translation displacement, node 1, m
          2   -1.355E+00                                 F               0         Tower Y translation displacement, node 1, m
          3   -4.807E-02                                 F               0         Tower Z translation displacement, node 1, m
          4    3.903E-01                                 F               0         Tower X translation displacement, node 2, m
          5   -1.889E+00                                 F               0         Tower Y translation displacement, node 2, m
          6   -6.192E-02                                 F               0         Tower Z translation displacement, node 2, m
          7    6.403E-01                                 F               0         Tower X translation displacement, node 3, m
          8   -2.429E+00                                 F               0         Tower Y translation displacement, node 3, m
          9   -7.625E-02                                 F               0         Tower Z translation displacement, node 3, m
         10    9.003E-01                                 F               0         Tower X translation displacement, node 4, m
         11   -2.973E+00                                 F               0         Tower Y translation displacement, node 4, m
         12   -9.096E-02                                 F               0         Tower Z translation displacement, node 4, m
         13    1.168E+00                                 F               0         Tower X translation displacement, node 5, m
         14   -3.520E+00                                 F               0         Tower Y translation displacement, node 5, m
         15   -1.060E-01                                 F               0         Tower Z translation displacement, node 5, m
         16    1.442E+00                                 F               0         Tower X translation displacement, node 6, m
         17   -4.071E+00                                 F               0         Tower Y translation displacement, node 6, m
         18   -1.213E-01                                 F               0         Tower Z translation displacement, node 6, m
         19    1.720E+00                                 F               0         Tower X translation displacement, node 7, m
         20   -4.623E+00                                 F               0         Tower Y translation displacement, node 7, m
         21   -1.368E-01                                 F               0         Tower Z translation displacement, node 7, m
         22    2.002E+00                                 F               0         Tower X translation displacement, node 8, m
         23   -5.178E+00                                 F               0         Tower Y translation displacement, node 8, m
         24   -1.525E-01                                 F               0         Tower Z translation displacement, node 8, m
         25    2.285E+00                                 F               0         Tower X translation displacement, node 9, m
         26   -5.734E+00                                 F               0         Tower Y translation displacement, node 9, m
         27   -1.682E-01                                 F               0         Tower Z translation displacement, node 9, m
         28    2.570E+00                                 F               0         Tower X translation displacement, node 10, m
         29   -6.291E+00                                 F               0         Tower Y translation displacement, node 10, m
         30   -1.841E-01                                 F               0         Tower Z translation displacement, node 10, m
         31    2.855E+00                                 F               0         Tower X translation displacement, node 11, m
         32   -6.849E+00                                 F               0         Tower Y translation displacement, node 11, m
         33   -2.000E-01                                 F               0         Tower Z translation displacement, node 11, m
         34    9.998E-01,  7.899E-03, -1.840E-02         F               0         Tower X orientation angle, node 1, rad
         35   -7.097E-03,  9.990E-01,  4.325E-02         F               0         Tower Y orientation angle, node 1, rad
         36    1.873E-02, -4.311E-02,  9.989E-01         F               0         Tower Z orientation angle, node 1, rad
         37    9.998E-01,  7.943E-03, -1.942E-02         F               0         Tower X orientation angle, node 2, rad
         38   -7.089E-03,  9.990E-01,  4.365E-02         F               0         Tower Y orientation angle, node 2, rad
         39    1.975E-02, -4.350E-02,  9.989E-01         F               0         Tower Z orientation angle, node 2, rad
         40    9.998E-01,  7.982E-03, -2.030E-02         F               0         Tower X orientation angle, node 3, rad
         41   -7.082E-03,  9.990E-01,  4.401E-02         F               0         Tower Y orientation angle, node 3, rad
         42    2.063E-02, -4.385E-02,  9.988E-01         F               0         Tower Z orientation angle, node 3, rad
         43    9.997E-01,  8.013E-03, -2.101E-02         F               0         Tower X orientation angle, node 4, rad
         44   -7.076E-03,  9.990E-01,  4.432E-02         F               0         Tower Y orientation angle, node 4, rad
         45    2.135E-02, -4.416E-02,  9.988E-01         F               0         Tower Z orientation angle, node 4, rad
         46    9.997E-01,  8.039E-03, -2.158E-02         F               0         Tower X orientation angle, node 5, rad
         47   -7.070E-03,  9.990E-01,  4.459E-02         F               0         Tower Y orientation angle, node 5, rad
         48    2.192E-02, -4.442E-02,  9.988E-01         F               0         Tower Z orientation angle, node 5, rad
         49    9.997E-01,  8.058E-03, -2.202E-02         F               0         Tower X orientation angle, node 6, rad
         50   -7.065E-03,  9.990E-01,  4.481E-02         F               0         Tower Y orientation angle, node 6, rad
         51    2.235E-02, -4.464E-02,  9.988E-01         F               0         Tower Z orientation angle, node 6, rad
         52    9.997E-01,  8.072E-03, -2.232E-02         F               0         Tower X orientation angle, node 7, rad
         53   -7.061E-03,  9.990E-01,  4.499E-02         F               0         Tower Y orientation angle, node 7, rad
         54    2.266E-02, -4.482E-02,  9.987E-01         F               0         Tower Z orientation angle, node 7, rad
         55    9.997E-01,  8.081E-03, -2.253E-02         F               0         Tower X orientation angle, node 8, rad
         56   -7.058E-03,  9.990E-01,  4.513E-02         F               0         Tower Y orientation angle, node 8, rad
         57    2.287E-02, -4.496E-02,  9.987E-01         F               0         Tower Z orientation angle, node 8, rad
         58    9.997E-01,  8.087E-03, -2.266E-02         F               0         Tower X orientation angle, node 9, rad
         59   -7.056E-03,  9.990E-01,  4.523E-02         F               0         Tower Y orientation angle, node 9, rad
         60    2.300E-02, -4.506E-02,  9.987E-01         F               0         Tower Z orientation angle, node 9, rad
         61    9.997E-01,  8.090E-03, -2.273E-02         F               0         Tower X orientation angle, node 10, rad
         62   -7.054E-03,  9.989E-01,  4.530E-02         F               0         Tower Y orientation angle, node 10, rad
         63    2.307E-02, -4.512E-02,  9.987E-01         F               0         Tower Z orientation angle, node 10, rad
         64    9.997E-01,  8.092E-03, -2.276E-02         F               0         Tower X orientation angle, node 11, rad
         65   -7.053E-03,  9.989E-01,  4.533E-02         F               0         Tower Y orientation angle, node 11, rad
         66    2.310E-02, -4.516E-02,  9.987E-01         F               0         Tower Z orientation angle, node 11, rad
         67   -1.890E-06                                 F               0         Tower X translation velocity, node 1, m/s
         68   -8.209E-07                                 F               0         Tower Y translation velocity, node 1, m/s
         69    0.000E+00                                 F               0         Tower Z translation velocity, node 1, m/s
         70   -6.231E-06                                 F               0         Tower X translation velocity, node 2, m/s
         71   -3.365E-05                                 F               0         Tower Y translation velocity, node 2, m/s
         72   -1.342E-06                                 F               0         Tower Z translation velocity, node 2, m/s
         73   -1.945E-05                                 F               0         Tower X translation velocity, node 3, m/s
         74   -1.498E-04                                 F               0         Tower Y translation velocity, node 3, m/s
         75   -6.155E-06                                 F               0         Tower Z translation velocity, node 3, m/s
         76   -4.124E-05                                 F               0         Tower X translation velocity, node 4, m/s
         77   -3.329E-04                                 F               0         Tower Y translation velocity, node 4, m/s
         78   -1.377E-05                                 F               0         Tower Z translation velocity, node 4, m/s
         79   -7.196E-05                                 F               0         Tower X translation velocity, node 5, m/s
         80   -5.750E-04                                 F               0         Tower Y translation velocity, node 5, m/s
         81   -2.384E-05                                 F               0         Tower Z translation velocity, node 5, m/s
         82   -1.117E-04                                 F               0         Tower X translation velocity, node 6, m/s
         83   -8.682E-04                                 F               0         Tower Y translation velocity, node 6, m/s
         84   -3.603E-05                                 F               0         Tower Z translation velocity, node 6, m/s
         85   -1.594E-04                                 F               0         Tower X translation velocity, node 7, m/s
         86   -1.201E-03                                 F               0         Tower Y translation velocity, node 7, m/s
         87   -4.987E-05                                 F               0         Tower Z translation velocity, node 7, m/s
         88   -2.153E-04                                 F               0         Tower X translation velocity, node 8, m/s
         89   -1.570E-03                                 F               0         Tower Y translation velocity, node 8, m/s
         90   -6.519E-05                                 F               0         Tower Z translation velocity, node 8, m/s
         91   -2.782E-04                                 F               0         Tower X translation velocity, node 9, m/s
         92   -1.967E-03                                 F               0         Tower Y translation velocity, node 9, m/s
         93   -8.163E-05                                 F               0         Tower Z translation velocity, node 9, m/s
         94   -3.465E-04                                 F               0         Tower X translation velocity, node 10, m/s
         95   -2.384E-03                                 F               0         Tower Y translation velocity, node 10, m/s
         96   -9.887E-05                                 F               0         Tower Z translation velocity, node 10, m/s
         97   -4.187E-04                                 F               0         Tower X translation velocity, node 11, m/s
         98   -2.813E-03                                 F               0         Tower Y translation velocity, node 11, m/s
         99   -1.166E-04                                 F               0         Tower Z translation velocity, node 11, m/s
        100    3.040E+00                                 F               0         Hub X translation displacement, node 1, m
        101   -7.291E+00                                 F               0         Hub Y translation displacement, node 1, m
        102    3.569E-02                                 F               0         Hub Z translation displacement, node 1, m
        103    9.918E-01,  1.277E-02, -1.270E-01         F               0         Hub X orientation angle, node 1, rad
        104    1.231E-01, -3.593E-01,  9.251E-01         F               0         Hub Y orientation angle, node 1, rad
        105   -3.383E-02, -9.331E-01, -3.579E-01         F               0         Hub Z orientation angle, node 1, rad
        106    8.865E-01                                 F               0         Hub X rotation velocity, node 1, rad/s
        107    1.141E-02                                 F               0         Hub Y rotation velocity, node 1, rad/s
        108   -1.135E-01                                 F               0         Hub Z rotation velocity, node 1, rad/s
        109    9.877E-01,  2.342E-02, -1.544E-01         F               0         Blade root 1 X orientation angle, node 1, rad
        110    1.525E-01, -3.587E-01,  9.209E-01         F               0         Blade root 1 Y orientation angle, node 1, rad
        111   -3.383E-02, -9.331E-01, -3.579E-01         F               0         Blade root 1 Z orientation angle, node 1, rad
        112    9.941E-01,  3.141E-02, -1.041E-01         F               0         Blade root 2 X orientation angle, node 1, rad
        113   -6.138E-02, -6.278E-01, -7.759E-01         F               0         Blade root 2 Y orientation angle, node 1, rad
        114   -8.970E-02,  7.777E-01, -6.222E-01         F               0         Blade root 2 Z orientation angle, node 1, rad
        115    9.923E-01, -1.654E-02, -1.224E-01         F               0         Blade root 3 X orientation angle, node 1, rad
        116   -2.820E-03,  9.877E-01, -1.563E-01         F               0         Blade root 3 Y orientation angle, node 1, rad
        117    1.235E-01,  1.554E-01,  9.801E-01         F               0         Blade root 3 Z orientation angle, node 1, rad
        118    2.273E+00                                 F               0         Blade 1 X translation displacement, node 1, m
        119   -1.246E+01                                 F               0         Blade 1 Y translation displacement, node 1, m
        120   -7.457E+00                                 F               0         Blade 1 Z translation displacement, node 1, m
        121    2.088E+00                                 F               0         Blade 1 X translation displacement, node 2, m
        122   -1.371E+01                                 F               0         Blade 1 Y translation displacement, node 2, m
        123   -9.262E+00                                 F               0         Blade 1 Z translation displacement, node 2, m
        124   -4.230E-01                                 F               0         Blade 1 X translation displacement, node 3, m
        125   -3.065E+01                                 F               0         Blade 1 Y translation displacement, node 3, m
        126   -3.381E+01                                 F               0         Blade 1 Z translation displacement, node 3, m
        127   -9.581E-01                                 F               0         Blade 1 X translation displacement, node 4, m
        128   -3.425E+01                                 F               0         Blade 1 Y translation displacement, node 4, m
        129   -3.904E+01                                 F               0         Blade 1 Z translation displacement, node 4, m
        130   -1.493E+00                                 F               0         Blade 1 X translation displacement, node 5, m
        131   -3.786E+01                                 F               0         Blade 1 Y translation displacement, node 5, m
        132   -4.427E+01                                 F               0         Blade 1 Z translation displacement, node 5, m
        133   -2.028E+00                                 F               0         Blade 1 X translation displacement, node 6, m
        134   -4.147E+01                                 F               0         Blade 1 Y translation displacement, node 6, m
        135   -4.950E+01                                 F               0         Blade 1 Z translation displacement, node 6, m
        136   -2.563E+00                                 F               0         Blade 1 X translation displacement, node 7, m
        137   -4.508E+01                                 F               0         Blade 1 Y translation displacement, node 7, m
        138   -5.473E+01                                 F               0         Blade 1 Z translation displacement, node 7, m
        139   -3.099E+00                                 F               0         Blade 1 X translation displacement, node 8, m
        140   -4.869E+01                                 F               0         Blade 1 Y translation displacement, node 8, m
        141   -5.997E+01                                 F               0         Blade 1 Z translation displacement, node 8, m
        142   -3.634E+00                                 F               0         Blade 1 X translation displacement, node 9, m
        143   -5.230E+01                                 F               0         Blade 1 Y translation displacement, node 9, m
        144   -6.520E+01                                 F               0         Blade 1 Z translation displacement, node 9, m
        145   -4.169E+00                                 F               0         Blade 1 X translation displacement, node 10, m
        146   -5.591E+01                                 F               0         Blade 1 Y translation displacement, node 10, m
        147   -7.043E+01                                 F               0         Blade 1 Z translation displacement, node 10, m
        148   -4.704E+00                                 F               0         Blade 1 X translation displacement, node 11, m
        149   -5.952E+01                                 F               0         Blade 1 Y translation displacement, node 11, m
        150   -7.566E+01                                 F               0         Blade 1 Z translation displacement, node 11, m
        151   -5.239E+00                                 F               0         Blade 1 X translation displacement, node 12, m
        152   -6.313E+01                                 F               0         Blade 1 Y translation displacement, node 12, m
        153   -8.089E+01                                 F               0         Blade 1 Z translation displacement, node 12, m
        154   -5.774E+00                                 F               0         Blade 1 X translation displacement, node 13, m
        155   -6.674E+01                                 F               0         Blade 1 Y translation displacement, node 13, m
        156   -8.612E+01                                 F               0         Blade 1 Z translation displacement, node 13, m
        157   -6.309E+00                                 F               0         Blade 1 X translation displacement, node 14, m
        158   -7.035E+01                                 F               0         Blade 1 Y translation displacement, node 14, m
        159   -9.135E+01                                 F               0         Blade 1 Z translation displacement, node 14, m
        160   -6.844E+00                                 F               0         Blade 1 X translation displacement, node 15, m
        161   -7.395E+01                                 F               0         Blade 1 Y translation displacement, node 15, m
        162   -9.658E+01                                 F               0         Blade 1 Z translation displacement, node 15, m
        163   -7.380E+00                                 F               0         Blade 1 X translation displacement, node 16, m
        164   -7.756E+01                                 F               0         Blade 1 Y translation displacement, node 16, m
        165   -1.018E+02                                 F               0         Blade 1 Z translation displacement, node 16, m
        166   -7.915E+00                                 F               0         Blade 1 X translation displacement, node 17, m
        167   -8.117E+01                                 F               0         Blade 1 Y translation displacement, node 17, m
        168   -1.070E+02                                 F               0         Blade 1 Z translation displacement, node 17, m
        169   -8.450E+00                                 F               0         Blade 1 X translation displacement, node 18, m
        170   -8.478E+01                                 F               0         Blade 1 Y translation displacement, node 18, m
        171   -1.123E+02                                 F               0         Blade 1 Z translation displacement, node 18, m
        172   -8.985E+00                                 F               0         Blade 1 X translation displacement, node 19, m
        173   -8.839E+01                                 F               0         Blade 1 Y translation displacement, node 19, m
        174   -1.175E+02                                 F               0         Blade 1 Z translation displacement, node 19, m
        175   -9.520E+00                                 F               0         Blade 1 X translation displacement, node 20, m
        176   -9.200E+01                                 F               0         Blade 1 Y translation displacement, node 20, m
        177   -1.227E+02                                 F               0         Blade 1 Z translation displacement, node 20, m
        178   -1.006E+01                                 F               0         Blade 1 X translation displacement, node 21, m
        179   -9.561E+01                                 F               0         Blade 1 Y translation displacement, node 21, m
        180   -1.280E+02                                 F               0         Blade 1 Z translation displacement, node 21, m
        181   -1.059E+01                                 F               0         Blade 1 X translation displacement, node 22, m
        182   -9.922E+01                                 F               0         Blade 1 Y translation displacement, node 22, m
        183   -1.332E+02                                 F               0         Blade 1 Z translation displacement, node 22, m
        184   -1.113E+01                                 F               0         Blade 1 X translation displacement, node 23, m
        185   -1.028E+02                                 F               0         Blade 1 Y translation displacement, node 23, m
        186   -1.384E+02                                 F               0         Blade 1 Z translation displacement, node 23, m
        187   -1.166E+01                                 F               0         Blade 1 X translation displacement, node 24, m
        188   -1.064E+02                                 F               0         Blade 1 Y translation displacement, node 24, m
        189   -1.437E+02                                 F               0         Blade 1 Z translation displacement, node 24, m
        190   -1.220E+01                                 F               0         Blade 1 X translation displacement, node 25, m
        191   -1.100E+02                                 F               0         Blade 1 Y translation displacement, node 25, m
        192   -1.489E+02                                 F               0         Blade 1 Z translation displacement, node 25, m
        193   -1.273E+01                                 F               0         Blade 1 X translation displacement, node 26, m
        194   -1.137E+02                                 F               0         Blade 1 Y translation displacement, node 26, m
        195   -1.541E+02                                 F               0         Blade 1 Z translation displacement, node 26, m
        196   -1.327E+01                                 F               0         Blade 1 X translation displacement, node 27, m
        197   -1.173E+02                                 F               0         Blade 1 Y translation displacement, node 27, m
        198   -1.594E+02                                 F               0         Blade 1 Z translation displacement, node 27, m
        199   -1.372E+01                                 F               0         Blade 1 X translation displacement, node 28, m
        200   -1.203E+02                                 F               0         Blade 1 Y translation displacement, node 28, m
        201   -1.638E+02                                 F               0         Blade 1 Z translation displacement, node 28, m
        202    8.095E-01,  1.844E-01, -5.574E-01         F               0         Blade 1 X orientation angle, node 1, rad
        203    5.861E-01, -3.086E-01,  7.492E-01         F               0         Blade 1 Y orientation angle, node 1, rad
        204   -3.383E-02, -9.331E-01, -3.579E-01         F               0         Blade 1 Z orientation angle, node 1, rad
        205    8.095E-01,  1.844E-01, -5.574E-01         F               0         Blade 1 X orientation angle, node 2, rad
        206    5.861E-01, -3.086E-01,  7.492E-01         F               0         Blade 1 Y orientation angle, node 2, rad
        207   -3.383E-02, -9.331E-01, -3.579E-01         F               0         Blade 1 Z orientation angle, node 2, rad
        208    9.254E-01,  1.060E-01, -3.639E-01         F               0         Blade 1 X orientation angle, node 3, rad
        209    3.775E-01, -3.435E-01,  8.599E-01         F               0         Blade 1 Y orientation angle, node 3, rad
        210   -3.383E-02, -9.331E-01, -3.579E-01         F               0         Blade 1 Z orientation angle, node 3, rad
        211    9.405E-01,  9.144E-02, -3.273E-01         F               0         Blade 1 X orientation angle, node 4, rad
        212    3.381E-01, -3.477E-01,  8.745E-01         F               0         Blade 1 Y orientation angle, node 4, rad
        213   -3.383E-02, -9.331E-01, -3.579E-01         F               0         Blade 1 Z orientation angle, node 4, rad
        214    9.512E-01,  7.986E-02, -2.981E-01         F               0         Blade 1 X orientation angle, node 5, rad
        215    3.068E-01, -3.505E-01,  8.849E-01         F               0         Blade 1 Y orientation angle, node 5, rad
        216   -3.383E-02, -9.331E-01, -3.579E-01         F               0         Blade 1 Z orientation angle, node 5, rad
        217    9.590E-01,  7.054E-02, -2.745E-01         F               0         Blade 1 X orientation angle, node 6, rad
        218    2.814E-01, -3.525E-01,  8.925E-01         F               0         Blade 1 Y orientation angle, node 6, rad
        219   -3.383E-02, -9.331E-01, -3.579E-01         F               0         Blade 1 Z orientation angle, node 6, rad
        220    9.649E-01,  6.283E-02, -2.550E-01         F               0         Blade 1 X orientation angle, node 7, rad
        221    2.604E-01, -3.540E-01,  8.983E-01         F               0         Blade 1 Y orientation angle, node 7, rad
        222   -3.383E-02, -9.331E-01, -3.579E-01         F               0         Blade 1 Z orientation angle, node 7, rad
        223    9.695E-01,  5.640E-02, -2.387E-01         F               0         Blade 1 X orientation angle, node 8, rad
        224    2.429E-01, -3.551E-01,  9.027E-01         F               0         Blade 1 Y orientation angle, node 8, rad
        225   -3.383E-02, -9.331E-01, -3.579E-01         F               0         Blade 1 Z orientation angle, node 8, rad
        226    9.731E-01,  5.094E-02, -2.248E-01         F               0         Blade 1 X orientation angle, node 9, rad
        227    2.280E-01, -3.559E-01,  9.063E-01         F               0         Blade 1 Y orientation angle, node 9, rad