
Linearized model: Predictions were generated on 24-Jan-2024 at 11:24:37 using OpenFAST, compiled as a 64-bit application using single precision at commit v3.5.1
 linked with  NWTC Subroutine Library; ElastoDyn; InflowWind; AeroDyn; ServoDyn; HydroDyn; MAP++ (<1.20.10>, <Oct-20-2023>)

Description from the FAST input file: CCT-9 Campign 4 model. Input files to be run with OpenFAST 3.5.0. GitHub branch from Lu Wang (https://github.com/luwang00/openfast/tree/dev) compiled on March 7, 2023.

Simulation information:
   Simulation time:                   501.5000 s
   Rotor Speed:                         0.8940 rad/s
   Azimuth:                             2.8810 rad
   Wind Speed:                         10.0000 m/s
   Number of continuous states:        12
   Number of discrete states:           0
   Number of constraint states:         0
   Number of inputs:                 1890
   Number of outputs:                  14
   Jacobians included in this file?    No

Order of continuous states:
   Row/Column Operating Point                     Rotating Frame? Derivative Order Description
   ---------- ---------------                     --------------- ---------------- -----------
          1    7.508E-03                                 F               2         Platform yaw rotation DOF (internal DOF index = DOF_Y), rad
          2    3.845E-01                                 F               2         1st tower fore-aft bending mode DOF (internal DOF index = DOF_TFA1), m
          3    1.737E-01                                 F               2         1st tower side-to-side bending mode DOF (internal DOF index = DOF_TSS1), m
          4    1.289E-03                                 F               2         2nd tower fore-aft bending mode DOF (internal DOF index = DOF_TFA2), m
          5    7.403E-05                                 F               2         2nd tower side-to-side bending mode DOF (internal DOF index = DOF_TSS2), m
          6    1.310E+00                                 F               2         Variable speed generator DOF (internal DOF index = DOF_GeAz), rad
          7    1.575E-06                                 F               2         First time derivative of Platform yaw rotation DOF (internal DOF index = DOF_Y), rad/s
          8   -9.587E-04                                 F               2         First time derivative of 1st tower fore-aft bending mode DOF (internal DOF index = DOF_TFA1), m/s
          9   -8.792E-04                                 F               2         First time derivative of 1st tower side-to-side bending mode DOF (internal DOF index = DOF_TSS1), m/s
         10    2.306E-06                                 F               2         First time derivative of 2nd tower fore-aft bending mode DOF (internal DOF index = DOF_TFA2), m/s
         11    1.873E-07                                 F               2         First time derivative of 2nd tower side-to-side bending mode DOF (internal DOF index = DOF_TSS2), m/s
         12    8.940E-01                                 F               2         First time derivative of Variable speed generator DOF (internal DOF index = DOF_GeAz), rad/s

Order of continuous state derivatives:
   Row/Column Operating Point                     Rotating Frame? Derivative Order Description
   ---------- ---------------                     --------------- ---------------- -----------
          1    1.575E-06                                 F               2         First time derivative of Platform yaw rotation DOF (internal DOF index = DOF_Y), rad/s
          2   -9.587E-04                                 F               2         First time derivative of 1st tower fore-aft bending mode DOF (internal DOF index = DOF_TFA1), m/s
          3   -8.792E-04                                 F               2         First time derivative of 1st tower side-to-side bending mode DOF (internal DOF index = DOF_TSS1), m/s
          4    2.306E-06                                 F               2         First time derivative of 2nd tower fore-aft bending mode DOF (internal DOF index = DOF_TFA2), m/s
          5    1.873E-07                                 F               2         First time derivative of 2nd tower side-to-side bending mode DOF (internal DOF index = DOF_TSS2), m/s
          6    8.940E-01                                 F               2         First time derivative of Variable speed generator DOF (internal DOF index = DOF_GeAz), rad/s
          7    3.133E-06                                 F               2         First time derivative of First time derivative of Platform yaw rotation DOF (internal DOF index = DOF_Y), rad/s/s
          8   -2.071E-04                                 F               2         First time derivative of First time derivative of 1st tower fore-aft bending mode DOF (internal DOF index = DOF_TFA1), m/s/s
          9   -4.719E-03                                 F               2         First time derivative of First time derivative of 1st tower side-to-side bending mode DOF (internal DOF index = DOF_TSS1), m/s/s
         10   -5.048E-06                                 F               2         First time derivative of First time derivative of 2nd tower fore-aft bending mode DOF (internal DOF index = DOF_TFA2), m/s/s
         11   -3.437E-07                                 F               2         First time derivative of First time derivative of 2nd tower side-to-side bending mode DOF (internal DOF index = DOF_TSS2), m/s/s
         12    2.358E-04                                 F               2         First time derivative of First time derivative of Variable speed generator DOF (internal DOF index = DOF_GeAz), rad/s/s

Order of inputs:
     Column   Operating Point                     Rotating Frame? Derivative Order Description
   ---------- ---------------                     --------------- ---------------- -----------
          1    7.945E+01                                 F               0         Blade 1 X force, node 1, N
          2   -8.748E+01                                 F               0         Blade 1 Y force, node 1, N
          3    9.444E+00                                 F               0         Blade 1 Z force, node 1, N
          4    3.317E+02                                 F               0         Blade 1 X force, node 2, N
          5   -1.592E+02                                 F               0         Blade 1 Y force, node 2, N
          6   -6.250E+00                                 F               0         Blade 1 Z force, node 2, N
          7    4.293E+02                                 F               0         Blade 1 X force, node 3, N
          8   -9.486E+01                                 F               0         Blade 1 Y force, node 3, N
          9   -3.273E+01                                 F               0         Blade 1 Z force, node 3, N
         10    5.624E+02                                 F               0         Blade 1 X force, node 4, N
         11   -5.031E+01                                 F               0         Blade 1 Y force, node 4, N
         12   -5.926E+01                                 F               0         Blade 1 Z force, node 4, N
         13    6.954E+02                                 F               0         Blade 1 X force, node 5, N
         14   -5.760E+00                                 F               0         Blade 1 Y force, node 5, N
         15   -8.580E+01                                 F               0         Blade 1 Z force, node 5, N
         16    8.285E+02                                 F               0         Blade 1 X force, node 6, N
         17    3.879E+01                                 F               0         Blade 1 Y force, node 6, N
         18   -1.123E+02                                 F               0         Blade 1 Z force, node 6, N
         19    9.615E+02                                 F               0         Blade 1 X force, node 7, N
         20    8.334E+01                                 F               0         Blade 1 Y force, node 7, N
         21   -1.389E+02                                 F               0         Blade 1 Z force, node 7, N
         22    1.095E+03                                 F               0         Blade 1 X force, node 8, N
         23    1.279E+02                                 F               0         Blade 1 Y force, node 8, N
         24   -1.654E+02                                 F               0         Blade 1 Z force, node 8, N
         25    1.228E+03                                 F               0         Blade 1 X force, node 9, N
         26    1.724E+02                                 F               0         Blade 1 Y force, node 9, N
         27   -1.919E+02                                 F               0         Blade 1 Z force, node 9, N
         28    1.361E+03                                 F               0         Blade 1 X force, node 10, N
         29    2.170E+02                                 F               0         Blade 1 Y force, node 10, N
         30   -2.185E+02                                 F               0         Blade 1 Z force, node 10, N
         31    1.494E+03                                 F               0         Blade 1 X force, node 11, N
         32    2.615E+02                                 F               0         Blade 1 Y force, node 11, N
         33   -2.450E+02                                 F               0         Blade 1 Z force, node 11, N
         34    1.627E+03                                 F               0         Blade 1 X force, node 12, N
         35    3.061E+02                                 F               0         Blade 1 Y force, node 12, N
         36   -2.715E+02                                 F               0         Blade 1 Z force, node 12, N
         37    1.760E+03                                 F               0         Blade 1 X force, node 13, N
         38    3.506E+02                                 F               0         Blade 1 Y force, node 13, N
         39   -2.981E+02                                 F               0         Blade 1 Z force, node 13, N
         40    1.893E+03                                 F               0         Blade 1 X force, node 14, N
         41    3.952E+02                                 F               0         Blade 1 Y force, node 14, N
         42   -3.246E+02                                 F               0         Blade 1 Z force, node 14, N
         43    2.026E+03                                 F               0         Blade 1 X force, node 15, N
         44    4.397E+02                                 F               0         Blade 1 Y force, node 15, N
         45   -3.511E+02                                 F               0         Blade 1 Z force, node 15, N
         46    2.159E+03                                 F               0         Blade 1 X force, node 16, N
         47    4.843E+02                                 F               0         Blade 1 Y force, node 16, N
         48   -3.777E+02                                 F               0         Blade 1 Z force, node 16, N
         49    2.660E+03                                 F               0         Blade 1 X force, node 17, N
         50    6.111E+02                                 F               0         Blade 1 Y force, node 17, N
         51   -4.685E+02                                 F               0         Blade 1 Z force, node 17, N
         52    2.046E+03                                 F               0         Blade 1 X force, node 18, N
         53    4.550E+02                                 F               0         Blade 1 Y force, node 18, N
         54   -3.570E+02                                 F               0         Blade 1 Z force, node 18, N
         55    2.532E+03                                 F               0         Blade 1 X force, node 19, N
         56    5.361E+02                                 F               0         Blade 1 Y force, node 19, N
         57   -4.359E+02                                 F               0         Blade 1 Z force, node 19, N
         58    2.176E+03                                 F               0         Blade 1 X force, node 20, N
         59    4.396E+02                                 F               0         Blade 1 Y force, node 20, N
         60   -3.699E+02                                 F               0         Blade 1 Z force, node 20, N
         61    3.241E+03                                 F               0         Blade 1 X force, node 21, N
         62    6.201E+02                                 F               0         Blade 1 Y force, node 21, N
         63   -5.432E+02                                 F               0         Blade 1 Z force, node 21, N
         64    2.884E+03                                 F               0         Blade 1 X force, node 22, N
         65    5.222E+02                                 F               0         Blade 1 Y force, node 22, N
         66   -4.768E+02                                 F               0         Blade 1 Z force, node 22, N
         67    2.983E+03                                 F               0         Blade 1 X force, node 23, N
         68    5.137E+02                                 F               0         Blade 1 Y force, node 23, N
         69   -4.873E+02                                 F               0         Blade 1 Z force, node 23, N
         70    3.135E+03                                 F               0         Blade 1 X force, node 24, N
         71    5.140E+02                                 F               0         Blade 1 Y force, node 24, N
         72   -5.065E+02                                 F               0         Blade 1 Z force, node 24, N
         73    3.233E+03                                 F               0         Blade 1 X force, node 25, N
         74    5.047E+02                                 F               0         Blade 1 Y force, node 25, N
         75   -5.167E+02                                 F               0         Blade 1 Z force, node 25, N
         76    3.348E+03                                 F               0         Blade 1 X force, node 26, N
         77    4.981E+02                                 F               0         Blade 1 Y force, node 26, N
         78   -5.297E+02                                 F               0         Blade 1 Z force, node 26, N
         79    4.036E+03                                 F               0         Blade 1 X force, node 27, N
         80    5.709E+02                                 F               0         Blade 1 Y force, node 27, N
         81   -6.318E+02                                 F               0         Blade 1 Z force, node 27, N
         82    3.008E+03                                 F               0         Blade 1 X force, node 28, N
         83    4.051E+02                                 F               0         Blade 1 Y force, node 28, N
         84   -4.664E+02                                 F               0         Blade 1 Z force, node 28, N
         85    3.695E+03                                 F               0         Blade 1 X force, node 29, N
         86    4.774E+02                                 F               0         Blade 1 Y force, node 29, N
         87   -5.684E+02                                 F               0         Blade 1 Z force, node 29, N
         88    3.156E+03                                 F               0         Blade 1 X force, node 30, N
         89    3.915E+02                                 F               0         Blade 1 Y force, node 30, N
         90   -4.819E+02                                 F               0         Blade 1 Z force, node 30, N
         91    4.579E+03                                 F               0         Blade 1 X force, node 31, N
         92    5.416E+02                                 F               0         Blade 1 Y force, node 31, N
         93   -6.934E+02                                 F               0         Blade 1 Z force, node 31, N
         94    4.040E+03                                 F               0         Blade 1 X force, node 32, N
         95    4.552E+02                                 F               0         Blade 1 Y force, node 32, N
         96   -6.067E+02                                 F               0         Blade 1 Z force, node 32, N
         97    4.154E+03                                 F               0         Blade 1 X force, node 33, N
         98    4.474E+02                                 F               0         Blade 1 Y force, node 33, N
         99   -6.192E+02                                 F               0         Blade 1 Z force, node 33, N
        100    4.269E+03                                 F               0         Blade 1 X force, node 34, N
        101    4.397E+02                                 F               0         Blade 1 Y force, node 34, N
        102   -6.319E+02                                 F               0         Blade 1 Z force, node 34, N
        103    4.384E+03                                 F               0         Blade 1 X force, node 35, N
        104    4.318E+02                                 F               0         Blade 1 Y force, node 35, N
        105   -6.446E+02                                 F               0         Blade 1 Z force, node 35, N
        106    4.497E+03                                 F               0         Blade 1 X force, node 36, N
        107    4.237E+02                                 F               0         Blade 1 Y force, node 36, N
        108   -6.570E+02                                 F               0         Blade 1 Z force, node 36, N
        109    5.396E+03                                 F               0         Blade 1 X force, node 37, N
        110    4.851E+02                                 F               0         Blade 1 Y force, node 37, N
        111   -7.832E+02                                 F               0         Blade 1 Z force, node 37, N
        112    3.941E+03                                 F               0         Blade 1 X force, node 38, N
        113    3.382E+02                                 F               0         Blade 1 Y force, node 38, N
        114   -5.685E+02                                 F               0         Blade 1 Z force, node 38, N
        115    4.842E+03                                 F               0         Blade 1 X force, node 39, N
        116    3.995E+02                                 F               0         Blade 1 Y force, node 39, N
        117   -6.948E+02                                 F               0         Blade 1 Z force, node 39, N
        118    4.137E+03                                 F               0         Blade 1 X force, node 40, N
        119    3.283E+02                                 F               0         Blade 1 Y force, node 40, N
        120   -5.908E+02                                 F               0         Blade 1 Z force, node 40, N
        121    5.891E+03                                 F               0         Blade 1 X force, node 41, N
        122    4.463E+02                                 F               0         Blade 1 Y force, node 41, N
        123   -8.365E+02                                 F               0         Blade 1 Z force, node 41, N
        124    5.184E+03                                 F               0         Blade 1 X force, node 42, N
        125    3.746E+02                                 F               0         Blade 1 Y force, node 42, N
        126   -7.322E+02                                 F               0         Blade 1 Z force, node 42, N
        127    5.298E+03                                 F               0         Blade 1 X force, node 43, N
        128    3.661E+02                                 F               0         Blade 1 Y force, node 43, N
        129   -7.444E+02                                 F               0         Blade 1 Z force, node 43, N
        130    5.439E+03                                 F               0         Blade 1 X force, node 44, N
        131    3.594E+02                                 F               0         Blade 1 Y force, node 44, N
        132   -7.607E+02                                 F               0         Blade 1 Z force, node 44, N
        133    5.495E+03                                 F               0         Blade 1 X force, node 45, N
        134    3.470E+02                                 F               0         Blade 1 Y force, node 45, N
        135   -7.650E+02                                 F               0         Blade 1 Z force, node 45, N
        136    5.637E+03                                 F               0         Blade 1 X force, node 46, N
        137    3.402E+02                                 F               0         Blade 1 Y force, node 46, N
        138   -7.813E+02                                 F               0         Blade 1 Z force, node 46, N
        139    6.760E+03                                 F               0         Blade 1 X force, node 47, N
        140    3.886E+02                                 F               0         Blade 1 Y force, node 47, N
        141   -9.326E+02                                 F               0         Blade 1 Z force, node 47, N
        142    4.854E+03                                 F               0         Blade 1 X force, node 48, N
        143    2.658E+02                                 F               0         Blade 1 Y force, node 48, N
        144   -6.667E+02                                 F               0         Blade 1 Z force, node 48, N
        145    5.976E+03                                 F               0         Blade 1 X force, node 49, N
        146    3.140E+02                                 F               0         Blade 1 Y force, node 49, N
        147   -8.178E+02                                 F               0         Blade 1 Z force, node 49, N
        148    5.120E+03                                 F               0         Blade 1 X force, node 50, N
        149    2.579E+02                                 F               0         Blade 1 Y force, node 50, N
        150   -6.982E+02                                 F               0         Blade 1 Z force, node 50, N
        151    7.171E+03                                 F               0         Blade 1 X force, node 51, N
        152    3.436E+02                                 F               0         Blade 1 Y force, node 51, N
        153   -9.740E+02                                 F               0         Blade 1 Z force, node 51, N
        154    6.316E+03                                 F               0         Blade 1 X force, node 52, N
        155    2.876E+02                                 F               0         Blade 1 Y force, node 52, N
        156   -8.546E+02                                 F               0         Blade 1 Z force, node 52, N
        157    6.430E+03                                 F               0         Blade 1 X force, node 53, N
        158    2.789E+02                                 F               0         Blade 1 Y force, node 53, N
        159   -8.669E+02                                 F               0         Blade 1 Z force, node 53, N
        160    6.616E+03                                 F               0         Blade 1 X force, node 54, N
        161    2.731E+02                                 F               0         Blade 1 Y force, node 54, N
        162   -8.889E+02                                 F               0         Blade 1 Z force, node 54, N
        163    6.586E+03                                 F               0         Blade 1 X force, node 55, N
        164    2.584E+02                                 F               0         Blade 1 Y force, node 55, N
        165   -8.819E+02                                 F               0         Blade 1 Z force, node 55, N
        166    6.771E+03                                 F               0         Blade 1 X force, node 56, N
        167    2.524E+02                                 F               0         Blade 1 Y force, node 56, N
        168   -9.038E+02                                 F               0         Blade 1 Z force, node 56, N
        169    8.131E+03                                 F               0         Blade 1 X force, node 57, N
        170    2.866E+02                                 F               0         Blade 1 Y force, node 57, N
        171   -1.082E+03                                 F               0         Blade 1 Z force, node 57, N
        172    5.751E+03                                 F               0         Blade 1 X force, node 58, N
        173    1.916E+02                                 F               0         Blade 1 Y force, node 58, N
        174   -7.626E+02                                 F               0         Blade 1 Z force, node 58, N
        175    7.111E+03                                 F               0         Blade 1 X force, node 59, N
        176    2.257E+02                                 F               0         Blade 1 Y force, node 59, N
        177   -9.404E+02                                 F               0         Blade 1 Z force, node 59, N
        178    6.118E+03                                 F               0         Blade 1 X force, node 60, N
        179    1.846E+02                                 F               0         Blade 1 Y force, node 60, N
        180   -8.070E+02                                 F               0         Blade 1 Z force, node 60, N
        181    8.444E+03                                 F               0         Blade 1 X force, node 61, N
        182    2.399E+02                                 F               0         Blade 1 Y force, node 61, N
        183   -1.110E+03                                 F               0         Blade 1 Z force, node 61, N
        184    7.449E+03                                 F               0         Blade 1 X force, node 62, N
        185    1.985E+02                                 F               0         Blade 1 Y force, node 62, N
        186   -9.766E+02                                 F               0         Blade 1 Z force, node 62, N
        187    7.560E+03                                 F               0         Blade 1 X force, node 63, N
        188    1.893E+02                                 F               0         Blade 1 Y force, node 63, N
        189   -9.885E+02                                 F               0         Blade 1 Z force, node 63, N
        190    7.800E+03                                 F               0         Blade 1 X force, node 64, N
        191    1.831E+02                                 F               0         Blade 1 Y force, node 64, N
        192   -1.017E+03                                 F               0         Blade 1 Z force, node 64, N
        193    7.657E+03                                 F               0         Blade 1 X force, node 65, N
        194    1.682E+02                                 F               0         Blade 1 Y force, node 65, N
        195   -9.960E+02                                 F               0         Blade 1 Z force, node 65, N
        196    7.900E+03                                 F               0         Blade 1 X force, node 66, N
        197    1.623E+02                                 F               0         Blade 1 Y force, node 66, N
        198   -1.025E+03                                 F               0         Blade 1 Z force, node 66, N
        199    9.509E+03                                 F               0         Blade 1 X force, node 67, N
        200    1.810E+02                                 F               0         Blade 1 Y force, node 67, N
        201   -1.231E+03                                 F               0         Blade 1 Z force, node 67, N
        202    6.635E+03                                 F               0         Blade 1 X force, node 68, N
        203    1.166E+02                                 F               0         Blade 1 Y force, node 68, N
        204   -8.566E+02                                 F               0         Blade 1 Z force, node 68, N
        205    8.242E+03                                 F               0         Blade 1 X force, node 69, N
        206    1.351E+02                                 F               0         Blade 1 Y force, node 69, N
        207   -1.062E+03                                 F               0         Blade 1 Z force, node 69, N
        208    7.124E+03                                 F               0         Blade 1 X force, node 70, N
        209    1.083E+02                                 F               0         Blade 1 Y force, node 70, N
        210   -9.160E+02                                 F               0         Blade 1 Z force, node 70, N
        211    9.696E+03                                 F               0         Blade 1 X force, node 71, N
        212    1.343E+02                                 F               0         Blade 1 Y force, node 71, N
        213   -1.244E+03                                 F               0         Blade 1 Z force, node 71, N
        214    8.575E+03                                 F               0         Blade 1 X force, node 72, N
        215    1.071E+02                                 F               0         Blade 1 Y force, node 72, N
        216   -1.097E+03                                 F               0         Blade 1 Z force, node 72, N