
Linearized model: Predictions were generated on 24-Jan-2024 at 11:24:37 using OpenFAST, compiled as a 64-bit application using single precision at commit v3.5.1
 linked with  NWTC Subroutine Library; ElastoDyn; InflowWind; AeroDyn; ServoDyn; HydroDyn; MAP++ (<1.20.10>, <Oct-20-2023>)

Description from the FAST input file: CCT-9 Campign 4 model. Input files to be run with OpenFAST 3.5.0. GitHub branch from Lu Wang (https://github.com/luwang00/openfast/tree/dev) compiled on March 7, 2023.

Simulation information:
   Simulation time:                   506.9250 s
   Rotor Speed:                         0.8937 rad/s
   Azimuth:                             1.4474 rad
   Wind Speed:                         10.0000 m/s
   Number of continuous states:         0
   Number of discrete states:           0
   Number of constraint states:         0
   Number of inputs:                 1746
   Number of outputs:                   4
   Jacobians included in this file?    No

Order of inputs:
     Column   Operating Point                     Rotating Frame? Derivative Order Description
   ---------- ---------------                     --------------- ---------------- -----------
          1    1.535E-01                                 F               0         Tower X translation displacement, node 1, m
          2   -1.355E+00                                 F               0         Tower Y translation displacement, node 1, m
          3   -4.807E-02                                 F               0         Tower Z translation displacement, node 1, m
          4    3.903E-01                                 F               0         Tower X translation displacement, node 2, m
          5   -1.889E+00                                 F               0         Tower Y translation displacement, node 2, m
          6   -6.192E-02                                 F               0         Tower Z translation displacement, node 2, m
          7    6.403E-01                                 F               0         Tower X translation displacement, node 3, m
          8   -2.429E+00                                 F               0         Tower Y translation displacement, node 3, m
          9   -7.625E-02                                 F               0         Tower Z translation displacement, node 3, m
         10    9.003E-01                                 F               0         Tower X translation displacement, node 4, m
         11   -2.973E+00                                 F               0         Tower Y translation displacement, node 4, m
         12   -9.096E-02                                 F               0         Tower Z translation displacement, node 4, m
         13    1.168E+00                                 F               0         Tower X translation displacement, node 5, m
         14   -3.520E+00                                 F               0         Tower Y translation displacement, node 5, m
         15   -1.060E-01                                 F               0         Tower Z translation displacement, node 5, m
         16    1.442E+00                                 F               0         Tower X translation displacement, node 6, m
         17   -4.070E+00                                 F               0         Tower Y translation displacement, node 6, m
         18   -1.213E-01                                 F               0         Tower Z translation displacement, node 6, m
         19    1.720E+00                                 F               0         Tower X translation displacement, node 7, m
         20   -4.623E+00                                 F               0         Tower Y translation displacement, node 7, m
         21   -1.368E-01                                 F               0         Tower Z translation displacement, node 7, m
         22    2.002E+00                                 F               0         Tower X translation displacement, node 8, m
         23   -5.177E+00                                 F               0         Tower Y translation displacement, node 8, m
         24   -1.524E-01                                 F               0         Tower Z translation displacement, node 8, m
         25    2.285E+00                                 F               0         Tower X translation displacement, node 9, m
         26   -5.733E+00                                 F               0         Tower Y translation displacement, node 9, m
         27   -1.682E-01                                 F               0         Tower Z translation displacement, node 9, m
         28    2.570E+00                                 F               0         Tower X translation displacement, node 10, m
         29   -6.290E+00                                 F               0         Tower Y translation displacement, node 10, m
         30   -1.841E-01                                 F               0         Tower Z translation displacement, node 10, m
         31    2.855E+00                                 F               0         Tower X translation displacement, node 11, m
         32   -6.848E+00                                 F               0         Tower Y translation displacement, node 11, m
         33   -1.999E-01                                 F               0         Tower Z translation displacement, node 11, m
         34    9.998E-01,  7.901E-03, -1.840E-02         F               0         Tower X orientation angle, node 1, rad
         35   -7.099E-03,  9.990E-01,  4.325E-02         F               0         Tower Y orientation angle, node 1, rad
         36    1.873E-02, -4.311E-02,  9.989E-01         F               0         Tower Z orientation angle, node 1, rad
         37    9.998E-01,  7.945E-03, -1.942E-02         F               0         Tower X orientation angle, node 2, rad
         38   -7.091E-03,  9.990E-01,  4.365E-02         F               0         Tower Y orientation angle, node 2, rad
         39    1.975E-02, -4.350E-02,  9.989E-01         F               0         Tower Z orientation angle, node 2, rad
         40    9.998E-01,  7.983E-03, -2.030E-02         F               0         Tower X orientation angle, node 3, rad
         41   -7.084E-03,  9.990E-01,  4.400E-02         F               0         Tower Y orientation angle, node 3, rad
         42    2.063E-02, -4.385E-02,  9.988E-01         F               0         Tower Z orientation angle, node 3, rad
         43    9.997E-01,  8.015E-03, -2.102E-02         F               0         Tower X orientation angle, node 4, rad
         44   -7.077E-03,  9.990E-01,  4.431E-02         F               0         Tower Y orientation angle, node 4, rad
         45    2.135E-02, -4.415E-02,  9.988E-01         F               0         Tower Z orientation angle, node 4, rad
         46    9.997E-01,  8.040E-03, -2.158E-02         F               0         Tower X orientation angle, node 5, rad
         47   -7.072E-03,  9.990E-01,  4.457E-02         F               0         Tower Y orientation angle, node 5, rad
         48    2.192E-02, -4.441E-02,  9.988E-01         F               0         Tower Z orientation angle, node 5, rad
         49    9.997E-01,  8.060E-03, -2.202E-02         F               0         Tower X orientation angle, node 6, rad
         50   -7.067E-03,  9.990E-01,  4.480E-02         F               0         Tower Y orientation angle, node 6, rad
         51    2.236E-02, -4.463E-02,  9.988E-01         F               0         Tower Z orientation angle, node 6, rad
         52    9.997E-01,  8.073E-03, -2.232E-02         F               0         Tower X orientation angle, node 7, rad
         53   -7.063E-03,  9.990E-01,  4.497E-02         F               0         Tower Y orientation angle, node 7, rad
         54    2.266E-02, -4.480E-02,  9.987E-01         F               0         Tower Z orientation angle, node 7, rad
         55    9.997E-01,  8.083E-03, -2.253E-02         F               0         Tower X orientation angle, node 8, rad
         56   -7.060E-03,  9.990E-01,  4.511E-02         F               0         Tower Y orientation angle, node 8, rad
         57    2.287E-02, -4.494E-02,  9.987E-01         F               0         Tower Z orientation angle, node 8, rad
         58    9.997E-01,  8.089E-03, -2.266E-02         F               0         Tower X orientation angle, node 9, rad
         59   -7.058E-03,  9.990E-01,  4.521E-02         F               0         Tower Y orientation angle, node 9, rad
         60    2.300E-02, -4.504E-02,  9.987E-01         F               0         Tower Z orientation angle, node 9, rad
         61    9.997E-01,  8.092E-03, -2.273E-02         F               0         Tower X orientation angle, node 10, rad
         62   -7.056E-03,  9.989E-01,  4.528E-02         F               0         Tower Y orientation angle, node 10, rad
         63    2.307E-02, -4.511E-02,  9.987E-01         F               0         Tower Z orientation angle, node 10, rad
         64    9.997E-01,  8.093E-03, -2.276E-02         F               0         Tower X orientation angle, node 11, rad
         65   -7.055E-03,  9.989E-01,  4.532E-02         F               0         Tower Y orientation angle, node 11, rad
         66    2.310E-02, -4.514E-02,  9.987E-01         F               0         Tower Z orientation angle, node 11, rad
         67   -2.855E-06                                 F               0         Tower X translation velocity, node 1, m/s
         68   -1.240E-06                                 F               0         Tower Y translation velocity, node 1, m/s
         69    0.000E+00                                 F               0         Tower Z translation velocity, node 1, m/s
         70   -7.051E-06                                 F               0         Tower X translation velocity, node 2, m/s
         71   -3.692E-05                                 F               0         Tower Y translation velocity, node 2, m/s
         72   -1.468E-06                                 F               0         Tower Z translation velocity, node 2, m/s
         73   -1.686E-05                                 F               0         Tower X translation velocity, node 3, m/s
         74   -1.626E-04                                 F               0         Tower Y translation velocity, node 3, m/s
         75   -6.766E-06                                 F               0         Tower Z translation velocity, node 3, m/s
         76   -3.080E-05                                 F               0         Tower X translation velocity, node 4, m/s
         77   -3.606E-04                                 F               0         Tower Y translation velocity, node 4, m/s
         78   -1.520E-05                                 F               0         Tower Z translation velocity, node 4, m/s
         79   -4.803E-05                                 F               0         Tower X translation velocity, node 5, m/s
         80   -6.226E-04                                 F               0         Tower Y translation velocity, node 5, m/s
         81   -2.644E-05                                 F               0         Tower Z translation velocity, node 5, m/s
         82   -6.775E-05                                 F               0         Tower X translation velocity, node 6, m/s
         83   -9.398E-04                                 F               0         Tower Y translation velocity, node 6, m/s
         84   -4.015E-05                                 F               0         Tower Z translation velocity, node 6, m/s
         85   -8.918E-05                                 F               0         Tower X translation velocity, node 7, m/s
         86   -1.300E-03                                 F               0         Tower Y translation velocity, node 7, m/s
         87   -5.581E-05                                 F               0         Tower Z translation velocity, node 7, m/s
         88   -1.119E-04                                 F               0         Tower X translation velocity, node 8, m/s
         89   -1.700E-03                                 F               0         Tower Y translation velocity, node 8, m/s
         90   -7.325E-05                                 F               0         Tower Z translation velocity, node 8, m/s
         91   -1.354E-04                                 F               0         Tower X translation velocity, node 9, m/s
         92   -2.130E-03                                 F               0         Tower Y translation velocity, node 9, m/s
         93   -9.208E-05                                 F               0         Tower Z translation velocity, node 9, m/s
         94   -1.594E-04                                 F               0         Tower X translation velocity, node 10, m/s
         95   -2.582E-03                                 F               0         Tower Y translation velocity, node 10, m/s
         96   -1.119E-04                                 F               0         Tower Z translation velocity, node 10, m/s
         97   -1.836E-04                                 F               0         Tower X translation velocity, node 11, m/s
         98   -3.046E-03                                 F               0         Tower Y translation velocity, node 11, m/s
         99   -1.324E-04                                 F               0         Tower Z translation velocity, node 11, m/s
        100    3.040E+00                                 F               0         Hub X translation displacement, node 1, m
        101   -7.289E+00                                 F               0         Hub Y translation displacement, node 1, m
        102    3.578E-02                                 F               0         Hub Z translation displacement, node 1, m
        103    9.918E-01,  1.277E-02, -1.270E-01         F               0         Hub X orientation angle, node 1, rad
        104    1.256E-01,  7.926E-02,  9.889E-01         F               0         Hub Y orientation angle, node 1, rad
        105    2.269E-02, -9.968E-01,  7.701E-02         F               0         Hub Z orientation angle, node 1, rad
        106    8.864E-01                                 F               0         Hub X rotation velocity, node 1, rad/s
        107    1.141E-02                                 F               0         Hub Y rotation velocity, node 1, rad/s
        108   -1.135E-01                                 F               0         Hub Z rotation velocity, node 1, rad/s
        109    9.877E-01,  1.041E-02, -1.563E-01         F               0         Blade root 1 X orientation angle, node 1, rad
        110    1.550E-01,  7.960E-02,  9.847E-01         F               0         Blade root 1 Y orientation angle, node 1, rad
        111    2.269E-02, -9.968E-01,  7.701E-02         F               0         Blade root 1 Z orientation angle, node 1, rad
        112    9.927E-01,  3.955E-02, -1.143E-01         F               0         Blade root 2 X orientation angle, node 1, rad
        113   -1.372E-02, -9.021E-01, -4.313E-01         F               0         Blade root 2 Y orientation angle, node 1, rad
        114   -1.202E-01,  4.297E-01, -8.949E-01         F               0         Blade root 2 Z orientation angle, node 1, rad
        115    9.938E-01, -1.167E-02, -1.103E-01         F               0         Blade root 3 X orientation angle, node 1, rad
        116   -5.301E-02,  8.236E-01, -5.647E-01         F               0         Blade root 3 Y orientation angle, node 1, rad
        117    9.746E-02,  5.670E-01,  8.179E-01         F               0         Blade root 3 Z orientation angle, node 1, rad
        118    2.586E+00                                 F               0         Blade 1 X translation displacement, node 1, m
        119   -1.281E+01                                 F               0         Blade 1 Y translation displacement, node 1, m
        120   -5.047E+00                                 F               0         Blade 1 Z translation displacement, node 1, m
        121    2.477E+00                                 F               0         Blade 1 X translation displacement, node 2, m
        122   -1.414E+01                                 F               0         Blade 1 Y translation displacement, node 2, m
        123   -6.272E+00                                 F               0         Blade 1 Z translation displacement, node 2, m
        124    9.917E-01                                 F               0         Blade 1 X translation displacement, node 3, m
        125   -3.224E+01                                 F               0         Blade 1 Y translation displacement, node 3, m
        126   -2.293E+01                                 F               0         Blade 1 Z translation displacement, node 3, m
        127    6.752E-01                                 F               0         Blade 1 X translation displacement, node 4, m
        128   -3.609E+01                                 F               0         Blade 1 Y translation displacement, node 4, m
        129   -2.648E+01                                 F               0         Blade 1 Z translation displacement, node 4, m
        130    3.586E-01                                 F               0         Blade 1 X translation displacement, node 5, m
        131   -3.995E+01                                 F               0         Blade 1 Y translation displacement, node 5, m
        132   -3.002E+01                                 F               0         Blade 1 Z translation displacement, node 5, m
        133    4.214E-02                                 F               0         Blade 1 X translation displacement, node 6, m
        134   -4.380E+01                                 F               0         Blade 1 Y translation displacement, node 6, m
        135   -3.357E+01                                 F               0         Blade 1 Z translation displacement, node 6, m
        136   -2.744E-01                                 F               0         Blade 1 X translation displacement, node 7, m
        137   -4.766E+01                                 F               0         Blade 1 Y translation displacement, node 7, m
        138   -3.712E+01                                 F               0         Blade 1 Z translation displacement, node 7, m
        139   -5.909E-01                                 F               0         Blade 1 X translation displacement, node 8, m
        140   -5.151E+01                                 F               0         Blade 1 Y translation displacement, node 8, m
        141   -4.067E+01                                 F               0         Blade 1 Z translation displacement, node 8, m
        142   -9.074E-01                                 F               0         Blade 1 X translation displacement, node 9, m
        143   -5.537E+01                                 F               0         Blade 1 Y translation displacement, node 9, m
        144   -4.422E+01                                 F               0         Blade 1 Z translation displacement, node 9, m
        145   -1.224E+00                                 F               0         Blade 1 X translation displacement, node 10, m
        146   -5.922E+01                                 F               0         Blade 1 Y translation displacement, node 10, m
        147   -4.777E+01                                 F               0         Blade 1 Z translation displacement, node 10, m
        148   -1.540E+00                                 F               0         Blade 1 X translation displacement, node 11, m
        149   -6.308E+01                                 F               0         Blade 1 Y translation displacement, node 11, m
        150   -5.132E+01                                 F               0         Blade 1 Z translation displacement, node 11, m
        151   -1.857E+00                                 F               0         Blade 1 X translation displacement, node 12, m
        152   -6.693E+01                                 F               0         Blade 1 Y translation displacement, node 12, m
        153   -5.487E+01                                 F               0         Blade 1 Z translation displacement, node 12, m
        154   -2.173E+00                                 F               0         Blade 1 X translation displacement, node 13, m
        155   -7.079E+01                                 F               0         Blade 1 Y translation displacement, node 13, m
        156   -5.841E+01                                 F               0         Blade 1 Z translation displacement, node 13, m
        157   -2.490E+00                                 F               0         Blade 1 X translation displacement, node 14, m
        158   -7.464E+01                                 F               0         Blade 1 Y translation displacement, node 14, m
        159   -6.196E+01                                 F               0         Blade 1 Z translation displacement, node 14, m
        160   -2.806E+00                                 F               0         Blade 1 X translation displacement, node 15, m
        161   -7.850E+01                                 F               0         Blade 1 Y translation displacement, node 15, m
        162   -6.551E+01                                 F               0         Blade 1 Z translation displacement, node 15, m
        163   -3.123E+00                                 F               0         Blade 1 X translation displacement, node 16, m
        164   -8.235E+01                                 F               0         Blade 1 Y translation displacement, node 16, m
        165   -6.906E+01                                 F               0         Blade 1 Z translation displacement, node 16, m
        166   -3.439E+00                                 F               0         Blade 1 X translation displacement, node 17, m
        167   -8.621E+01                                 F               0         Blade 1 Y translation displacement, node 17, m
        168   -7.261E+01                                 F               0         Blade 1 Z translation displacement, node 17, m
        169   -3.756E+00                                 F               0         Blade 1 X translation displacement, node 18, m
        170   -9.006E+01                                 F               0         Blade 1 Y translation displacement, node 18, m
        171   -7.616E+01                                 F               0         Blade 1 Z translation displacement, node 18, m
        172   -4.073E+00                                 F               0         Blade 1 X translation displacement, node 19, m
        173   -9.392E+01                                 F               0         Blade 1 Y translation displacement, node 19, m
        174   -7.971E+01                                 F               0         Blade 1 Z translation displacement, node 19, m
        175   -4.389E+00                                 F               0         Blade 1 X translation displacement, node 20, m
        176   -9.777E+01                                 F               0         Blade 1 Y translation displacement, node 20, m
        177   -8.325E+01                                 F               0         Blade 1 Z translation displacement, node 20, m
        178   -4.706E+00                                 F               0         Blade 1 X translation displacement, node 21, m
        179   -1.016E+02                                 F               0         Blade 1 Y translation displacement, node 21, m
        180   -8.680E+01                                 F               0         Blade 1 Z translation displacement, node 21, m
        181   -5.022E+00                                 F               0         Blade 1 X translation displacement, node 22, m
        182   -1.055E+02                                 F               0         Blade 1 Y translation displacement, node 22, m
        183   -9.035E+01                                 F               0         Blade 1 Z translation displacement, node 22, m
        184   -5.339E+00                                 F               0         Blade 1 X translation displacement, node 23, m
        185   -1.093E+02                                 F               0         Blade 1 Y translation displacement, node 23, m
        186   -9.390E+01                                 F               0         Blade 1 Z translation displacement, node 23, m
        187   -5.655E+00                                 F               0         Blade 1 X translation displacement, node 24, m
        188   -1.132E+02                                 F               0         Blade 1 Y translation displacement, node 24, m
        189   -9.745E+01                                 F               0         Blade 1 Z translation displacement, node 24, m
        190   -5.972E+00                                 F               0         Blade 1 X translation displacement, node 25, m
        191   -1.171E+02                                 F               0         Blade 1 Y translation displacement, node 25, m
        192   -1.010E+02                                 F               0         Blade 1 Z translation displacement, node 25, m
        193   -6.288E+00                                 F               0         Blade 1 X translation displacement, node 26, m
        194   -1.209E+02                                 F               0         Blade 1 Y translation displacement, node 26, m
        195   -1.045E+02                                 F               0         Blade 1 Z translation displacement, node 26, m
        196   -6.605E+00                                 F               0         Blade 1 X translation displacement, node 27, m
        197   -1.248E+02                                 F               0         Blade 1 Y translation displacement, node 27, m
        198   -1.081E+02                                 F               0         Blade 1 Z translation displacement, node 27, m
        199   -6.873E+00                                 F               0         Blade 1 X translation displacement, node 28, m
        200   -1.280E+02                                 F               0         Blade 1 Y translation displacement, node 28, m
        201   -1.111E+02                                 F               0         Blade 1 Z translation displacement, node 28, m
        202    8.083E-01, -2.703E-02, -5.881E-01         F               0         Blade 1 X orientation angle, node 1, rad
        203    5.883E-01,  7.559E-02,  8.051E-01         F               0         Blade 1 Y orientation angle, node 1, rad
        204    2.269E-02, -9.968E-01,  7.701E-02         F               0         Blade 1 Z orientation angle, node 1, rad
        205    8.083E-01, -2.703E-02, -5.881E-01         F               0         Blade 1 X orientation angle, node 2, rad
        206    5.883E-01,  7.559E-02,  8.051E-01         F               0         Blade 1 Y orientation angle, node 2, rad
        207    2.269E-02, -9.968E-01,  7.701E-02         F               0         Blade 1 Z orientation angle, node 2, rad
        208    9.247E-01, -8.348E-03, -3.806E-01         F               0         Blade 1 X orientation angle, node 3, rad
        209    3.800E-01,  7.985E-02,  9.215E-01         F               0         Blade 1 Y orientation angle, node 3, rad
        210    2.269E-02, -9.968E-01,  7.701E-02         F               0         Blade 1 Z orientation angle, node 3, rad
        211    9.399E-01, -4.970E-03, -3.413E-01         F               0         Blade 1 X orientation angle, node 4, rad
        212    3.406E-01,  8.013E-02,  9.368E-01         F               0         Blade 1 Y orientation angle, node 4, rad
        213    2.269E-02, -9.968E-01,  7.701E-02         F               0         Blade 1 Z orientation angle, node 4, rad
        214    9.507E-01, -2.310E-03, -3.101E-01         F               0         Blade 1 X orientation angle, node 5, rad
        215    3.093E-01,  8.025E-02,  9.476E-01         F               0         Blade 1 Y orientation angle, node 5, rad
        216    2.269E-02, -9.968E-01,  7.701E-02         F               0         Blade 1 Z orientation angle, node 5, rad
        217    9.586E-01, -1.807E-04, -2.848E-01         F               0         Blade 1 X orientation angle, node 6, rad
        218    2.839E-01,  8.028E-02,  9.555E-01         F               0         Blade 1 Y orientation angle, node 6, rad
        219    2.269E-02, -9.968E-01,  7.701E-02         F               0         Blade 1 Z orientation angle, node 6, rad
        220    9.645E-01,  1.571E-03, -2.639E-01         F               0         Blade 1 X orientation angle, node 7, rad
        221    2.630E-01,  8.027E-02,  9.615E-01         F               0         Blade 1 Y orientation angle, node 7, rad
        222    2.269E-02, -9.968E-01,  7.701E-02         F               0         Blade 1 Z orientation angle, node 7, rad
        223    9.692E-01,  3.027E-03, -2.464E-01         F               0         Blade 1 X orientation angle, node 8, rad
        224    2.454E-01,  8.022E-02,  9.661E-01         F               0         Blade 1 Y orientation angle, node 8, rad
        225    2.269E-02, -9.968E-01,  7.701E-02         F               0         Blade 1 Z orientation angle, node 8, rad
        226    9.728E-01,  4.259E-03, -2.316E-01         F               0         Blade 1 X orientation angle, node 9, rad
        227    2.305E-01,  8.017E-02,  9.698E-01         F               0         Blade 1 Y orientation angle, node 9, rad