
Linearized model: Predictions were generated on 24-Jan-2024 at 11:24:37 using OpenFAST, compiled as a 64-bit application using single precision at commit v3.5.1
 linked with  NWTC Subroutine Library; ElastoDyn; InflowWind; AeroDyn; ServoDyn; HydroDyn; MAP++ (<1.20.10>, <Oct-20-2023>)

Description from the FAST input file: CCT-9 Campign 4 model. Input files to be run with OpenFAST 3.5.0. GitHub branch from Lu Wang (https://github.com/luwang00/openfast/tree/dev) compiled on March 7, 2023.

Simulation information:
   Simulation time:                   507.4250 s
   Rotor Speed:                         0.8937 rad/s
   Azimuth:                             1.8942 rad
   Wind Speed:                         10.0000 m/s
   Number of continuous states:        12
   Number of discrete states:           0
   Number of constraint states:         0
   Number of inputs:                 1890
   Number of outputs:                  14
   Jacobians included in this file?    No

Order of continuous states:
   Row/Column Operating Point                     Rotating Frame? Derivative Order Description
   ---------- ---------------                     --------------- ---------------- -----------
          1    7.507E-03                                 F               2         Platform yaw rotation DOF (internal DOF index = DOF_Y), rad
          2    3.853E-01                                 F               2         1st tower fore-aft bending mode DOF (internal DOF index = DOF_TFA1), m
          3    1.713E-01                                 F               2         1st tower side-to-side bending mode DOF (internal DOF index = DOF_TSS1), m
          4    1.285E-03                                 F               2         2nd tower fore-aft bending mode DOF (internal DOF index = DOF_TFA2), m
          5    7.422E-05                                 F               2         2nd tower side-to-side bending mode DOF (internal DOF index = DOF_TSS2), m
          6    3.234E-01                                 F               2         Variable speed generator DOF (internal DOF index = DOF_GeAz), rad
          7   -2.390E-06                                 F               2         First time derivative of Platform yaw rotation DOF (internal DOF index = DOF_Y), rad/s
          8   -4.261E-04                                 F               2         First time derivative of 1st tower fore-aft bending mode DOF (internal DOF index = DOF_TFA1), m/s
          9    2.806E-03                                 F               2         First time derivative of 1st tower side-to-side bending mode DOF (internal DOF index = DOF_TSS1), m/s
         10    2.544E-06                                 F               2         First time derivative of 2nd tower fore-aft bending mode DOF (internal DOF index = DOF_TFA2), m/s
         11   -7.420E-07                                 F               2         First time derivative of 2nd tower side-to-side bending mode DOF (internal DOF index = DOF_TSS2), m/s
         12    8.937E-01                                 F               2         First time derivative of Variable speed generator DOF (internal DOF index = DOF_GeAz), rad/s

Order of continuous state derivatives:
   Row/Column Operating Point                     Rotating Frame? Derivative Order Description
   ---------- ---------------                     --------------- ---------------- -----------
          1   -2.390E-06                                 F               2         First time derivative of Platform yaw rotation DOF (internal DOF index = DOF_Y), rad/s
          2   -4.261E-04                                 F               2         First time derivative of 1st tower fore-aft bending mode DOF (internal DOF index = DOF_TFA1), m/s
          3    2.806E-03                                 F               2         First time derivative of 1st tower side-to-side bending mode DOF (internal DOF index = DOF_TSS1), m/s
          4    2.544E-06                                 F               2         First time derivative of 2nd tower fore-aft bending mode DOF (internal DOF index = DOF_TFA2), m/s
          5   -7.420E-07                                 F               2         First time derivative of 2nd tower side-to-side bending mode DOF (internal DOF index = DOF_TSS2), m/s
          6    8.937E-01                                 F               2         First time derivative of Variable speed generator DOF (internal DOF index = DOF_GeAz), rad/s
          7    3.420E-06                                 F               2         First time derivative of First time derivative of Platform yaw rotation DOF (internal DOF index = DOF_Y), rad/s/s
          8   -4.734E-04                                 F               2         First time derivative of First time derivative of 1st tower fore-aft bending mode DOF (internal DOF index = DOF_TFA1), m/s/s
          9   -9.504E-04                                 F               2         First time derivative of First time derivative of 1st tower side-to-side bending mode DOF (internal DOF index = DOF_TSS1), m/s/s
         10    3.746E-06                                 F               2         First time derivative of First time derivative of 2nd tower fore-aft bending mode DOF (internal DOF index = DOF_TFA2), m/s/s
         11    2.896E-06                                 F               2         First time derivative of First time derivative of 2nd tower side-to-side bending mode DOF (internal DOF index = DOF_TSS2), m/s/s
         12    1.571E-04                                 F               2         First time derivative of First time derivative of Variable speed generator DOF (internal DOF index = DOF_GeAz), rad/s/s

Order of inputs:
     Column   Operating Point                     Rotating Frame? Derivative Order Description
   ---------- ---------------                     --------------- ---------------- -----------
          1    9.219E+01                                 F               0         Blade 1 X force, node 1, N
          2   -3.936E+01                                 F               0         Blade 1 Y force, node 1, N
          3    9.390E+01                                 F               0         Blade 1 Z force, node 1, N
          4    3.549E+02                                 F               0         Blade 1 X force, node 2, N
          5   -6.768E+01                                 F               0         Blade 1 Y force, node 2, N
          6    1.429E+02                                 F               0         Blade 1 Z force, node 2, N
          7    4.372E+02                                 F               0         Blade 1 X force, node 3, N
          8   -4.302E+01                                 F               0         Blade 1 Y force, node 3, N
          9    7.083E+01                                 F               0         Blade 1 Z force, node 3, N
         10    5.577E+02                                 F               0         Blade 1 X force, node 4, N
         11   -2.708E+01                                 F               0         Blade 1 Y force, node 4, N
         12    1.789E+01                                 F               0         Blade 1 Z force, node 4, N
         13    6.782E+02                                 F               0         Blade 1 X force, node 5, N
         14   -1.114E+01                                 F               0         Blade 1 Y force, node 5, N
         15   -3.505E+01                                 F               0         Blade 1 Z force, node 5, N
         16    7.986E+02                                 F               0         Blade 1 X force, node 6, N
         17    4.802E+00                                 F               0         Blade 1 Y force, node 6, N
         18   -8.800E+01                                 F               0         Blade 1 Z force, node 6, N
         19    9.191E+02                                 F               0         Blade 1 X force, node 7, N
         20    2.074E+01                                 F               0         Blade 1 Y force, node 7, N
         21   -1.409E+02                                 F               0         Blade 1 Z force, node 7, N
         22    1.040E+03                                 F               0         Blade 1 X force, node 8, N
         23    3.668E+01                                 F               0         Blade 1 Y force, node 8, N
         24   -1.939E+02                                 F               0         Blade 1 Z force, node 8, N
         25    1.160E+03                                 F               0         Blade 1 X force, node 9, N
         26    5.262E+01                                 F               0         Blade 1 Y force, node 9, N
         27   -2.468E+02                                 F               0         Blade 1 Z force, node 9, N
         28    1.280E+03                                 F               0         Blade 1 X force, node 10, N
         29    6.856E+01                                 F               0         Blade 1 Y force, node 10, N
         30   -2.998E+02                                 F               0         Blade 1 Z force, node 10, N
         31    1.401E+03                                 F               0         Blade 1 X force, node 11, N
         32    8.450E+01                                 F               0         Blade 1 Y force, node 11, N
         33   -3.527E+02                                 F               0         Blade 1 Z force, node 11, N
         34    1.521E+03                                 F               0         Blade 1 X force, node 12, N
         35    1.004E+02                                 F               0         Blade 1 Y force, node 12, N
         36   -4.057E+02                                 F               0         Blade 1 Z force, node 12, N
         37    1.642E+03                                 F               0         Blade 1 X force, node 13, N
         38    1.164E+02                                 F               0         Blade 1 Y force, node 13, N
         39   -4.586E+02                                 F               0         Blade 1 Z force, node 13, N
         40    1.762E+03                                 F               0         Blade 1 X force, node 14, N
         41    1.323E+02                                 F               0         Blade 1 Y force, node 14, N
         42   -5.115E+02                                 F               0         Blade 1 Z force, node 14, N
         43    1.883E+03                                 F               0         Blade 1 X force, node 15, N
         44    1.483E+02                                 F               0         Blade 1 Y force, node 15, N
         45   -5.645E+02                                 F               0         Blade 1 Z force, node 15, N
         46    2.003E+03                                 F               0         Blade 1 X force, node 16, N
         47    1.642E+02                                 F               0         Blade 1 Y force, node 16, N
         48   -6.174E+02                                 F               0         Blade 1 Z force, node 16, N
         49    2.465E+03                                 F               0         Blade 1 X force, node 17, N
         50    2.083E+02                                 F               0         Blade 1 Y force, node 17, N
         51   -7.760E+02                                 F               0         Blade 1 Z force, node 17, N
         52    1.902E+03                                 F               0         Blade 1 X force, node 18, N
         53    1.563E+02                                 F               0         Blade 1 Y force, node 18, N
         54   -5.871E+02                                 F               0         Blade 1 Z force, node 18, N
         55    2.362E+03                                 F               0         Blade 1 X force, node 19, N
         56    1.856E+02                                 F               0         Blade 1 Y force, node 19, N
         57   -7.071E+02                                 F               0         Blade 1 Z force, node 19, N
         58    2.036E+03                                 F               0         Blade 1 X force, node 20, N
         59    1.534E+02                                 F               0         Blade 1 Y force, node 20, N
         60   -5.923E+02                                 F               0         Blade 1 Z force, node 20, N
         61    3.044E+03                                 F               0         Blade 1 X force, node 21, N
         62    2.183E+02                                 F               0         Blade 1 Y force, node 21, N
         63   -8.568E+02                                 F               0         Blade 1 Z force, node 21, N
         64    2.718E+03                                 F               0         Blade 1 X force, node 22, N
         65    1.854E+02                                 F               0         Blade 1 Y force, node 22, N
         66   -7.403E+02                                 F               0         Blade 1 Z force, node 22, N
         67    2.819E+03                                 F               0         Blade 1 X force, node 23, N
         68    1.839E+02                                 F               0         Blade 1 Y force, node 23, N
         69   -7.458E+02                                 F               0         Blade 1 Z force, node 23, N
         70    2.971E+03                                 F               0         Blade 1 X force, node 24, N
         71    1.855E+02                                 F               0         Blade 1 Y force, node 24, N
         72   -7.644E+02                                 F               0         Blade 1 Z force, node 24, N
         73    3.071E+03                                 F               0         Blade 1 X force, node 25, N
         74    1.835E+02                                 F               0         Blade 1 Y force, node 25, N
         75   -7.686E+02                                 F               0         Blade 1 Z force, node 25, N
         76    3.188E+03                                 F               0         Blade 1 X force, node 26, N
         77    1.824E+02                                 F               0         Blade 1 Y force, node 26, N
         78   -7.770E+02                                 F               0         Blade 1 Z force, node 26, N
         79    3.850E+03                                 F               0         Blade 1 X force, node 27, N
         80    2.108E+02                                 F               0         Blade 1 Y force, node 27, N
         81   -9.136E+02                                 F               0         Blade 1 Z force, node 27, N
         82    2.876E+03                                 F               0         Blade 1 X force, node 28, N
         83    1.508E+02                                 F               0         Blade 1 Y force, node 28, N
         84   -6.649E+02                                 F               0         Blade 1 Z force, node 28, N
         85    3.538E+03                                 F               0         Blade 1 X force, node 29, N
         86    1.789E+02                                 F               0         Blade 1 Y force, node 29, N
         87   -8.009E+02                                 F               0         Blade 1 Z force, node 29, N
         88    3.027E+03                                 F               0         Blade 1 X force, node 30, N
         89    1.477E+02                                 F               0         Blade 1 Y force, node 30, N
         90   -6.712E+02                                 F               0         Blade 1 Z force, node 30, N
         91    4.400E+03                                 F               0         Blade 1 X force, node 31, N
         92    2.060E+02                                 F               0         Blade 1 Y force, node 31, N
         93   -9.530E+02                                 F               0         Blade 1 Z force, node 31, N
         94    3.887E+03                                 F               0         Blade 1 X force, node 32, N
         95    1.745E+02                                 F               0         Blade 1 Y force, node 32, N
         96   -8.224E+02                                 F               0         Blade 1 Z force, node 32, N
         97    4.002E+03                                 F               0         Blade 1 X force, node 33, N
         98    1.729E+02                                 F               0         Blade 1 Y force, node 33, N
         99   -8.290E+02                                 F               0         Blade 1 Z force, node 33, N
        100    4.118E+03                                 F               0         Blade 1 X force, node 34, N
        101    1.713E+02                                 F               0         Blade 1 Y force, node 34, N
        102   -8.357E+02                                 F               0         Blade 1 Z force, node 34, N
        103    4.234E+03                                 F               0         Blade 1 X force, node 35, N
        104    1.695E+02                                 F               0         Blade 1 Y force, node 35, N
        105   -8.420E+02                                 F               0         Blade 1 Z force, node 35, N
        106    4.348E+03                                 F               0         Blade 1 X force, node 36, N
        107    1.676E+02                                 F               0         Blade 1 Y force, node 36, N
        108   -8.480E+02                                 F               0         Blade 1 Z force, node 36, N
        109    5.223E+03                                 F               0         Blade 1 X force, node 37, N
        110    1.936E+02                                 F               0         Blade 1 Y force, node 37, N
        111   -9.984E+02                                 F               0         Blade 1 Z force, node 37, N
        112    3.819E+03                                 F               0         Blade 1 X force, node 38, N
        113    1.362E+02                                 F               0         Blade 1 Y force, node 38, N
        114   -7.160E+02                                 F               0         Blade 1 Z force, node 38, N
        115    4.695E+03                                 F               0         Blade 1 X force, node 39, N
        116    1.621E+02                                 F               0         Blade 1 Y force, node 39, N
        117   -8.664E+02                                 F               0         Blade 1 Z force, node 39, N
        118    4.015E+03                                 F               0         Blade 1 X force, node 40, N
        119    1.343E+02                                 F               0         Blade 1 Y force, node 40, N
        120   -7.296E+02                                 F               0         Blade 1 Z force, node 40, N
        121    5.722E+03                                 F               0         Blade 1 X force, node 41, N
        122    1.843E+02                                 F               0         Blade 1 Y force, node 41, N
        123   -1.021E+03                                 F               0         Blade 1 Z force, node 41, N
        124    5.040E+03                                 F               0         Blade 1 X force, node 42, N
        125    1.562E+02                                 F               0         Blade 1 Y force, node 42, N
        126   -8.836E+02                                 F               0         Blade 1 Z force, node 42, N
        127    5.154E+03                                 F               0         Blade 1 X force, node 43, N
        128    1.541E+02                                 F               0         Blade 1 Y force, node 43, N
        129   -8.889E+02                                 F               0         Blade 1 Z force, node 43, N
        130    5.296E+03                                 F               0         Blade 1 X force, node 44, N
        131    1.528E+02                                 F               0         Blade 1 Y force, node 44, N
        132   -8.989E+02                                 F               0         Blade 1 Z force, node 44, N
        133    5.354E+03                                 F               0         Blade 1 X force, node 45, N
        134    1.491E+02                                 F               0         Blade 1 Y force, node 45, N
        135   -8.947E+02                                 F               0         Blade 1 Z force, node 45, N
        136    5.496E+03                                 F               0         Blade 1 X force, node 46, N
        137    1.477E+02                                 F               0         Blade 1 Y force, node 46, N
        138   -9.045E+02                                 F               0         Blade 1 Z force, node 46, N
        139    6.595E+03                                 F               0         Blade 1 X force, node 47, N
        140    1.707E+02                                 F               0         Blade 1 Y force, node 47, N
        141   -1.068E+03                                 F               0         Blade 1 Z force, node 47, N
        142    4.738E+03                                 F               0         Blade 1 X force, node 48, N
        143    1.182E+02                                 F               0         Blade 1 Y force, node 48, N
        144   -7.559E+02                                 F               0         Blade 1 Z force, node 48, N
        145    5.836E+03                                 F               0         Blade 1 X force, node 49, N
        146    1.411E+02                                 F               0         Blade 1 Y force, node 49, N
        147   -9.194E+02                                 F               0         Blade 1 Z force, node 49, N
        148    5.002E+03                                 F               0         Blade 1 X force, node 50, N
        149    1.171E+02                                 F               0         Blade 1 Y force, node 50, N
        150   -7.782E+02                                 F               0         Blade 1 Z force, node 50, N
        151    7.010E+03                                 F               0         Blade 1 X force, node 51, N
        152    1.582E+02                                 F               0         Blade 1 Y force, node 51, N
        153   -1.075E+03                                 F               0         Blade 1 Z force, node 51, N
        154    6.177E+03                                 F               0         Blade 1 X force, node 52, N
        155    1.343E+02                                 F               0         Blade 1 Y force, node 52, N
        156   -9.340E+02                                 F               0         Blade 1 Z force, node 52, N
        157    6.292E+03                                 F               0         Blade 1 X force, node 53, N
        158    1.321E+02                                 F               0         Blade 1 Y force, node 53, N
        159   -9.391E+02                                 F               0         Blade 1 Z force, node 53, N
        160    6.477E+03                                 F               0         Blade 1 X force, node 54, N
        161    1.313E+02                                 F               0         Blade 1 Y force, node 54, N
        162   -9.544E+02                                 F               0         Blade 1 Z force, node 54, N
        163    6.449E+03                                 F               0         Blade 1 X force, node 55, N
        164    1.262E+02                                 F               0         Blade 1 Y force, node 55, N
        165   -9.385E+02                                 F               0         Blade 1 Z force, node 55, N
        166    6.634E+03                                 F               0         Blade 1 X force, node 56, N
        167    1.253E+02                                 F               0         Blade 1 Y force, node 56, N
        168   -9.536E+02                                 F               0         Blade 1 Z force, node 56, N
        169    7.969E+03                                 F               0         Blade 1 X force, node 57, N
        170    1.449E+02                                 F               0         Blade 1 Y force, node 57, N
        171   -1.131E+03                                 F               0         Blade 1 Z force, node 57, N
        172    5.639E+03                                 F               0         Blade 1 X force, node 58, N
        173    9.873E+01                                 F               0         Blade 1 Y force, node 58, N
        174   -7.904E+02                                 F               0         Blade 1 Z force, node 58, N
        175    6.974E+03                                 F               0         Blade 1 X force, node 59, N
        176    1.183E+02                                 F               0         Blade 1 Y force, node 59, N
        177   -9.676E+02                                 F               0         Blade 1 Z force, node 59, N
        178    6.002E+03                                 F               0         Blade 1 X force, node 60, N
        179    9.855E+01                                 F               0         Blade 1 Y force, node 60, N
        180   -8.242E+02                                 F               0         Blade 1 Z force, node 60, N
        181    8.287E+03                                 F               0         Blade 1 X force, node 61, N
        182    1.310E+02                                 F               0         Blade 1 Y force, node 61, N
        183   -1.125E+03                                 F               0         Blade 1 Z force, node 61, N
        184    7.312E+03                                 F               0         Blade 1 X force, node 62, N
        185    1.111E+02                                 F               0         Blade 1 Y force, node 62, N
        186   -9.807E+02                                 F               0         Blade 1 Z force, node 62, N
        187    7.423E+03                                 F               0         Blade 1 X force, node 63, N
        188    1.086E+02                                 F               0         Blade 1 Y force, node 63, N
        189   -9.848E+02                                 F               0         Blade 1 Z force, node 63, N
        190    7.661E+03                                 F               0         Blade 1 X force, node 64, N
        191    1.079E+02                                 F               0         Blade 1 Y force, node 64, N
        192   -1.005E+03                                 F               0         Blade 1 Z force, node 64, N
        193    7.523E+03                                 F               0         Blade 1 X force, node 65, N
        194    1.021E+02                                 F               0         Blade 1 Y force, node 65, N
        195   -9.771E+02                                 F               0         Blade 1 Z force, node 65, N
        196    7.764E+03                                 F               0         Blade 1 X force, node 66, N
        197    1.015E+02                                 F               0         Blade 1 Y force, node 66, N
        198   -9.983E+02                                 F               0         Blade 1 Z force, node 66, N
        199    9.347E+03                                 F               0         Blade 1 X force, node 67, N
        200    1.173E+02                                 F               0         Blade 1 Y force, node 67, N
        201   -1.189E+03                                 F               0         Blade 1 Z force, node 67, N
        202    6.524E+03                                 F               0         Blade 1 X force, node 68, N
        203    7.855E+01                                 F               0         Blade 1 Y force, node 68, N
        204   -8.214E+02                                 F               0         Blade 1 Z force, node 68, N
        205    8.105E+03                                 F               0         Blade 1 X force, node 69, N
        206    9.424E+01                                 F               0         Blade 1 Y force, node 69, N
        207   -1.012E+03                                 F               0         Blade 1 Z force, node 69, N
        208    7.008E+03                                 F               0         Blade 1 X force, node 70, N
        209    7.857E+01                                 F               0         Blade 1 Y force, node 70, N
        210   -8.672E+02                                 F               0         Blade 1 Z force, node 70, N
        211    9.539E+03                                 F               0         Blade 1 X force, node 71, N
        212    1.024E+02                                 F               0         Blade 1 Y force, node 71, N
        213   -1.169E+03                                 F               0         Blade 1 Z force, node 71, N
        214    8.438E+03                                 F               0         Blade 1 X force, node 72, N
        215    8.658E+01                                 F               0         Blade 1 Y force, node 72, N
        216   -1.023E+03                                 F               0         Blade 1 Z force, node 72, N