
Linearized model: Predictions were generated on 24-Jan-2024 at 11:24:37 using OpenFAST, compiled as a 64-bit application using single precision at commit v3.5.1
 linked with  NWTC Subroutine Library; ElastoDyn; InflowWind; AeroDyn; ServoDyn; HydroDyn; MAP++ (<1.20.10>, <Oct-20-2023>)

Description from the FAST input file: CCT-9 Campign 4 model. Input files to be run with OpenFAST 3.5.0. GitHub branch from Lu Wang (https://github.com/luwang00/openfast/tree/dev) compiled on March 7, 2023.

Simulation information:
   Simulation time:                   504.4500 s
   Rotor Speed:                         0.8939 rad/s
   Azimuth:                             5.5185 rad
   Wind Speed:                         10.0000 m/s
   Number of continuous states:        12
   Number of discrete states:           0
   Number of constraint states:         0
   Number of inputs:                 1890
   Number of outputs:                  14
   Jacobians included in this file?    No

Order of continuous states:
   Row/Column Operating Point                     Rotating Frame? Derivative Order Description
   ---------- ---------------                     --------------- ---------------- -----------
          1    7.516E-03                                 F               2         Platform yaw rotation DOF (internal DOF index = DOF_Y), rad
          2    3.840E-01                                 F               2         1st tower fore-aft bending mode DOF (internal DOF index = DOF_TFA1), m
          3    1.651E-01                                 F               2         1st tower side-to-side bending mode DOF (internal DOF index = DOF_TSS1), m
          4    1.289E-03                                 F               2         2nd tower fore-aft bending mode DOF (internal DOF index = DOF_TFA2), m
          5    7.596E-05                                 F               2         2nd tower side-to-side bending mode DOF (internal DOF index = DOF_TSS2), m
          6    3.948E+00                                 F               2         Variable speed generator DOF (internal DOF index = DOF_GeAz), rad
          7   -2.257E-07                                 F               2         First time derivative of Platform yaw rotation DOF (internal DOF index = DOF_Y), rad/s
          8    6.880E-04                                 F               2         First time derivative of 1st tower fore-aft bending mode DOF (internal DOF index = DOF_TFA1), m/s
          9   -3.498E-04                                 F               2         First time derivative of 1st tower side-to-side bending mode DOF (internal DOF index = DOF_TSS1), m/s
         10   -4.081E-06                                 F               2         First time derivative of 2nd tower fore-aft bending mode DOF (internal DOF index = DOF_TFA2), m/s
         11    1.432E-07                                 F               2         First time derivative of 2nd tower side-to-side bending mode DOF (internal DOF index = DOF_TSS2), m/s
         12    8.939E-01                                 F               2         First time derivative of Variable speed generator DOF (internal DOF index = DOF_GeAz), rad/s

Order of continuous state derivatives:
   Row/Column Operating Point                     Rotating Frame? Derivative Order Description
   ---------- ---------------                     --------------- ---------------- -----------
          1   -2.257E-07                                 F               2         First time derivative of Platform yaw rotation DOF (internal DOF index = DOF_Y), rad/s
          2    6.880E-04                                 F               2         First time derivative of 1st tower fore-aft bending mode DOF (internal DOF index = DOF_TFA1), m/s
          3   -3.498E-04                                 F               2         First time derivative of 1st tower side-to-side bending mode DOF (internal DOF index = DOF_TSS1), m/s
          4   -4.081E-06                                 F               2         First time derivative of 2nd tower fore-aft bending mode DOF (internal DOF index = DOF_TFA2), m/s
          5    1.432E-07                                 F               2         First time derivative of 2nd tower side-to-side bending mode DOF (internal DOF index = DOF_TSS2), m/s
          6    8.939E-01                                 F               2         First time derivative of Variable speed generator DOF (internal DOF index = DOF_GeAz), rad/s
          7   -4.237E-06                                 F               2         First time derivative of First time derivative of Platform yaw rotation DOF (internal DOF index = DOF_Y), rad/s/s
          8    5.486E-04                                 F               2         First time derivative of First time derivative of 1st tower fore-aft bending mode DOF (internal DOF index = DOF_TFA1), m/s/s
          9    2.855E-03                                 F               2         First time derivative of First time derivative of 1st tower side-to-side bending mode DOF (internal DOF index = DOF_TSS1), m/s/s
         10   -4.748E-07                                 F               2         First time derivative of First time derivative of 2nd tower fore-aft bending mode DOF (internal DOF index = DOF_TFA2), m/s/s
         11   -4.659E-08                                 F               2         First time derivative of First time derivative of 2nd tower side-to-side bending mode DOF (internal DOF index = DOF_TSS2), m/s/s
         12   -2.171E-04                                 F               2         First time derivative of First time derivative of Variable speed generator DOF (internal DOF index = DOF_GeAz), rad/s/s

Order of inputs:
     Column   Operating Point                     Rotating Frame? Derivative Order Description
   ---------- ---------------                     --------------- ---------------- -----------
          1    6.626E+01                                 F               0         Blade 1 X force, node 1, N
          2    4.661E+01                                 F               0         Blade 1 Y force, node 1, N
          3   -4.894E+01                                 F               0         Blade 1 Z force, node 1, N
          4    3.009E+02                                 F               0         Blade 1 X force, node 2, N
          5    9.472E+01                                 F               0         Blade 1 Y force, node 2, N
          6   -1.188E+02                                 F               0         Blade 1 Z force, node 2, N
          7    4.107E+02                                 F               0         Blade 1 X force, node 3, N
          8    5.134E+01                                 F               0         Blade 1 Y force, node 3, N
          9   -9.330E+01                                 F               0         Blade 1 Z force, node 3, N
         10    5.524E+02                                 F               0         Blade 1 X force, node 4, N
         11    1.898E+01                                 F               0         Blade 1 Y force, node 4, N
         12   -8.123E+01                                 F               0         Blade 1 Z force, node 4, N
         13    6.942E+02                                 F               0         Blade 1 X force, node 5, N
         14   -1.339E+01                                 F               0         Blade 1 Y force, node 5, N
         15   -6.916E+01                                 F               0         Blade 1 Z force, node 5, N
         16    8.360E+02                                 F               0         Blade 1 X force, node 6, N
         17   -4.575E+01                                 F               0         Blade 1 Y force, node 6, N
         18   -5.709E+01                                 F               0         Blade 1 Z force, node 6, N
         19    9.777E+02                                 F               0         Blade 1 X force, node 7, N
         20   -7.811E+01                                 F               0         Blade 1 Y force, node 7, N
         21   -4.502E+01                                 F               0         Blade 1 Z force, node 7, N
         22    1.119E+03                                 F               0         Blade 1 X force, node 8, N
         23   -1.105E+02                                 F               0         Blade 1 Y force, node 8, N
         24   -3.295E+01                                 F               0         Blade 1 Z force, node 8, N
         25    1.261E+03                                 F               0         Blade 1 X force, node 9, N
         26   -1.428E+02                                 F               0         Blade 1 Y force, node 9, N
         27   -2.088E+01                                 F               0         Blade 1 Z force, node 9, N
         28    1.403E+03                                 F               0         Blade 1 X force, node 10, N
         29   -1.752E+02                                 F               0         Blade 1 Y force, node 10, N
         30   -8.809E+00                                 F               0         Blade 1 Z force, node 10, N
         31    1.545E+03                                 F               0         Blade 1 X force, node 11, N
         32   -2.076E+02                                 F               0         Blade 1 Y force, node 11, N
         33    3.262E+00                                 F               0         Blade 1 Z force, node 11, N
         34    1.687E+03                                 F               0         Blade 1 X force, node 12, N
         35   -2.399E+02                                 F               0         Blade 1 Y force, node 12, N
         36    1.533E+01                                 F               0         Blade 1 Z force, node 12, N
         37    1.828E+03                                 F               0         Blade 1 X force, node 13, N
         38   -2.723E+02                                 F               0         Blade 1 Y force, node 13, N
         39    2.740E+01                                 F               0         Blade 1 Z force, node 13, N
         40    1.970E+03                                 F               0         Blade 1 X force, node 14, N
         41   -3.047E+02                                 F               0         Blade 1 Y force, node 14, N
         42    3.947E+01                                 F               0         Blade 1 Z force, node 14, N
         43    2.112E+03                                 F               0         Blade 1 X force, node 15, N
         44   -3.370E+02                                 F               0         Blade 1 Y force, node 15, N
         45    5.154E+01                                 F               0         Blade 1 Z force, node 15, N
         46    2.254E+03                                 F               0         Blade 1 X force, node 16, N
         47   -3.694E+02                                 F               0         Blade 1 Y force, node 16, N
         48    6.361E+01                                 F               0         Blade 1 Z force, node 16, N
         49    2.778E+03                                 F               0         Blade 1 X force, node 17, N
         50   -4.638E+02                                 F               0         Blade 1 Y force, node 17, N
         51    8.586E+01                                 F               0         Blade 1 Z force, node 17, N
         52    2.127E+03                                 F               0         Blade 1 X force, node 18, N
         53   -3.413E+02                                 F               0         Blade 1 Y force, node 18, N
         54    5.349E+01                                 F               0         Blade 1 Z force, node 18, N
         55    2.618E+03                                 F               0         Blade 1 X force, node 19, N
         56   -3.968E+02                                 F               0         Blade 1 Y force, node 19, N
         57    4.530E+01                                 F               0         Blade 1 Z force, node 19, N
         58    2.238E+03                                 F               0         Blade 1 X force, node 20, N
         59   -3.210E+02                                 F               0         Blade 1 Y force, node 20, N
         60    2.260E+01                                 F               0         Blade 1 Z force, node 20, N
         61    3.315E+03                                 F               0         Blade 1 X force, node 21, N
         62   -4.455E+02                                 F               0         Blade 1 Y force, node 21, N
         63    7.041E+00                                 F               0         Blade 1 Z force, node 21, N
         64    2.935E+03                                 F               0         Blade 1 X force, node 22, N
         65   -3.693E+02                                 F               0         Blade 1 Y force, node 22, N
         66   -1.597E+01                                 F               0         Blade 1 Z force, node 22, N
         67    3.022E+03                                 F               0         Blade 1 X force, node 23, N
         68   -3.578E+02                                 F               0         Blade 1 Y force, node 23, N
         69   -3.628E+01                                 F               0         Blade 1 Z force, node 23, N
         70    3.163E+03                                 F               0         Blade 1 X force, node 24, N
         71   -3.524E+02                                 F               0         Blade 1 Y force, node 24, N
         72   -5.749E+01                                 F               0         Blade 1 Z force, node 24, N
         73    3.249E+03                                 F               0         Blade 1 X force, node 25, N
         74   -3.407E+02                                 F               0         Blade 1 Y force, node 25, N
         75   -7.793E+01                                 F               0         Blade 1 Z force, node 25, N
         76    3.353E+03                                 F               0         Blade 1 X force, node 26, N
         77   -3.309E+02                                 F               0         Blade 1 Y force, node 26, N
         78   -9.869E+01                                 F               0         Blade 1 Z force, node 26, N
         79    4.026E+03                                 F               0         Blade 1 X force, node 27, N
         80   -3.726E+02                                 F               0         Blade 1 Y force, node 27, N
         81   -1.404E+02                                 F               0         Blade 1 Z force, node 27, N
         82    2.991E+03                                 F               0         Blade 1 X force, node 28, N
         83   -2.598E+02                                 F               0         Blade 1 Y force, node 28, N
         84   -1.193E+02                                 F               0         Blade 1 Z force, node 28, N
         85    3.665E+03                                 F               0         Blade 1 X force, node 29, N
         86   -3.014E+02                                 F               0         Blade 1 Y force, node 29, N
         87   -1.611E+02                                 F               0         Blade 1 Z force, node 29, N
         88    3.122E+03                                 F               0         Blade 1 X force, node 30, N
         89   -2.432E+02                                 F               0         Blade 1 Y force, node 30, N
         90   -1.493E+02                                 F               0         Blade 1 Z force, node 30, N
         91    4.519E+03                                 F               0         Blade 1 X force, node 31, N
         92   -3.300E+02                                 F               0         Blade 1 Y force, node 31, N
         93   -2.355E+02                                 F               0         Blade 1 Z force, node 31, N
         94    3.976E+03                                 F               0         Blade 1 X force, node 32, N
         95   -2.717E+02                                 F               0         Blade 1 Y force, node 32, N
         96   -2.237E+02                                 F               0         Blade 1 Z force, node 32, N
         97    4.079E+03                                 F               0         Blade 1 X force, node 33, N
         98   -2.617E+02                                 F               0         Blade 1 Y force, node 33, N
         99   -2.446E+02                                 F               0         Blade 1 Z force, node 33, N
        100    4.183E+03                                 F               0         Blade 1 X force, node 34, N
        101   -2.517E+02                                 F               0         Blade 1 Y force, node 34, N
        102   -2.655E+02                                 F               0         Blade 1 Z force, node 34, N
        103    4.287E+03                                 F               0         Blade 1 X force, node 35, N
        104   -2.418E+02                                 F               0         Blade 1 Y force, node 35, N
        105   -2.864E+02                                 F               0         Blade 1 Z force, node 35, N
        106    4.390E+03                                 F               0         Blade 1 X force, node 36, N
        107   -2.317E+02                                 F               0         Blade 1 Y force, node 36, N
        108   -3.073E+02                                 F               0         Blade 1 Z force, node 36, N
        109    5.257E+03                                 F               0         Blade 1 X force, node 37, N
        110   -2.583E+02                                 F               0         Blade 1 Y force, node 37, N
        111   -3.850E+02                                 F               0         Blade 1 Z force, node 37, N
        112    3.833E+03                                 F               0         Blade 1 X force, node 38, N
        113   -1.752E+02                                 F               0         Blade 1 Y force, node 38, N
        114   -2.924E+02                                 F               0         Blade 1 Z force, node 38, N
        115    4.702E+03                                 F               0         Blade 1 X force, node 39, N
        116   -2.018E+02                                 F               0         Blade 1 Y force, node 39, N
        117   -3.702E+02                                 F               0         Blade 1 Z force, node 39, N
        118    4.012E+03                                 F               0         Blade 1 X force, node 40, N
        119   -1.615E+02                                 F               0         Blade 1 Y force, node 40, N
        120   -3.254E+02                                 F               0         Blade 1 Z force, node 40, N
        121    5.704E+03                                 F               0         Blade 1 X force, node 41, N
        122   -2.123E+02                                 F               0         Blade 1 Y force, node 41, N
        123   -4.779E+02                                 F               0         Blade 1 Z force, node 41, N
        124    5.013E+03                                 F               0         Blade 1 X force, node 42, N
        125   -1.718E+02                                 F               0         Blade 1 Y force, node 42, N
        126   -4.330E+02                                 F               0         Blade 1 Z force, node 42, N
        127    5.116E+03                                 F               0         Blade 1 X force, node 43, N
        128   -1.617E+02                                 F               0         Blade 1 Y force, node 43, N
        129   -4.540E+02                                 F               0         Blade 1 Z force, node 43, N
        130    5.247E+03                                 F               0         Blade 1 X force, node 44, N
        131   -1.524E+02                                 F               0         Blade 1 Y force, node 44, N
        132   -4.774E+02                                 F               0         Blade 1 Z force, node 44, N
        133    5.295E+03                                 F               0         Blade 1 X force, node 45, N
        134   -1.408E+02                                 F               0         Blade 1 Y force, node 45, N
        135   -4.933E+02                                 F               0         Blade 1 Z force, node 45, N
        136    5.425E+03                                 F               0         Blade 1 X force, node 46, N
        137   -1.315E+02                                 F               0         Blade 1 Y force, node 46, N
        138   -5.168E+02                                 F               0         Blade 1 Z force, node 46, N
        139    6.499E+03                                 F               0         Blade 1 X force, node 47, N
        140   -1.418E+02                                 F               0         Blade 1 Y force, node 47, N
        141   -6.329E+02                                 F               0         Blade 1 Z force, node 47, N
        142    4.661E+03                                 F               0         Blade 1 X force, node 48, N
        143   -9.102E+01                                 F               0         Blade 1 Y force, node 48, N
        144   -4.634E+02                                 F               0         Blade 1 Z force, node 48, N
        145    5.734E+03                                 F               0         Blade 1 X force, node 49, N
        146   -1.013E+02                                 F               0         Blade 1 Y force, node 49, N
        147   -5.795E+02                                 F               0         Blade 1 Z force, node 49, N
        148    4.908E+03                                 F               0         Blade 1 X force, node 50, N
        149   -7.771E+01                                 F               0         Blade 1 Y force, node 50, N
        150   -5.040E+02                                 F               0         Blade 1 Z force, node 50, N
        151    6.869E+03                                 F               0         Blade 1 X force, node 51, N
        152   -9.458E+01                                 F               0         Blade 1 Y force, node 51, N
        153   -7.178E+02                                 F               0         Blade 1 Z force, node 51, N
        154    6.045E+03                                 F               0         Blade 1 X force, node 52, N
        155   -7.112E+01                                 F               0         Blade 1 Y force, node 52, N
        156   -6.424E+02                                 F               0         Blade 1 Z force, node 52, N
        157    6.149E+03                                 F               0         Blade 1 X force, node 53, N
        158   -6.112E+01                                 F               0         Blade 1 Y force, node 53, N
        159   -6.634E+02                                 F               0         Blade 1 Z force, node 53, N
        160    6.322E+03                                 F               0         Blade 1 X force, node 54, N
        161   -5.164E+01                                 F               0         Blade 1 Y force, node 54, N
        162   -6.920E+02                                 F               0         Blade 1 Z force, node 54, N
        163    6.289E+03                                 F               0         Blade 1 X force, node 55, N
        164   -4.057E+01                                 F               0         Blade 1 Y force, node 55, N
        165   -6.979E+02                                 F               0         Blade 1 Z force, node 55, N
        166    6.461E+03                                 F               0         Blade 1 X force, node 56, N
        167   -3.105E+01                                 F               0         Blade 1 Y force, node 56, N
        168   -7.264E+02                                 F               0         Blade 1 Z force, node 56, N
        169    7.753E+03                                 F               0         Blade 1 X force, node 57, N
        170   -2.398E+01                                 F               0         Blade 1 Y force, node 57, N
        171   -8.834E+02                                 F               0         Blade 1 Z force, node 57, N
        172    5.481E+03                                 F               0         Blade 1 X force, node 58, N
        173   -8.018E+00                                 F               0         Blade 1 Y force, node 58, N
        174   -6.324E+02                                 F               0         Blade 1 Z force, node 58, N
        175    6.773E+03                                 F               0         Blade 1 X force, node 59, N
        176   -9.352E-01                                 F               0         Blade 1 Y force, node 59, N
        177   -7.894E+02                                 F               0         Blade 1 Z force, node 59, N
        178    5.824E+03                                 F               0         Blade 1 X force, node 60, N
        179    6.863E+00                                 F               0         Blade 1 Y force, node 60, N
        180   -6.856E+02                                 F               0         Blade 1 Z force, node 60, N
        181    8.034E+03                                 F               0         Blade 1 X force, node 61, N
        182    2.142E+01                                 F               0         Blade 1 Y force, node 61, N
        183   -9.563E+02                                 F               0         Blade 1 Z force, node 61, N
        184    7.083E+03                                 F               0         Blade 1 X force, node 62, N
        185    2.930E+01                                 F               0         Blade 1 Y force, node 62, N
        186   -8.523E+02                                 F               0         Blade 1 Z force, node 62, N
        187    7.185E+03                                 F               0         Blade 1 X force, node 63, N
        188    3.942E+01                                 F               0         Blade 1 Y force, node 63, N
        189   -8.731E+02                                 F               0         Blade 1 Z force, node 63, N
        190    7.409E+03                                 F               0         Blade 1 X force, node 64, N
        191    5.040E+01                                 F               0         Blade 1 Y force, node 64, N
        192   -9.090E+02                                 F               0         Blade 1 Z force, node 64, N
        193    7.270E+03                                 F               0         Blade 1 X force, node 65, N
        194    5.866E+01                                 F               0         Blade 1 Y force, node 65, N
        195   -9.001E+02                                 F               0         Blade 1 Z force, node 65, N
        196    7.498E+03                                 F               0         Blade 1 X force, node 66, N
        197    6.954E+01                                 F               0         Blade 1 Y force, node 66, N
        198   -9.363E+02                                 F               0         Blade 1 Z force, node 66, N
        199    9.020E+03                                 F               0         Blade 1 X force, node 67, N
        200    9.511E+01                                 F               0         Blade 1 Y force, node 67, N
        201   -1.136E+03                                 F               0         Blade 1 Z force, node 67, N
        202    6.291E+03                                 F               0         Blade 1 X force, node 68, N
        203    7.402E+01                                 F               0         Blade 1 Y force, node 68, N
        204   -7.995E+02                                 F               0         Blade 1 Z force, node 68, N
        205    7.811E+03                                 F               0         Blade 1 X force, node 69, N
        206    9.970E+01                                 F               0         Blade 1 Y force, node 69, N
        207   -9.995E+02                                 F               0         Blade 1 Z force, node 69, N
        208    6.750E+03                                 F               0         Blade 1 X force, node 70, N
        209    9.292E+01                                 F               0         Blade 1 Y force, node 70, N
        210   -8.697E+02                                 F               0         Blade 1 Z force, node 70, N
        211    9.182E+03                                 F               0         Blade 1 X force, node 71, N
        212    1.369E+02                                 F               0         Blade 1 Y force, node 71, N
        213   -1.192E+03                                 F               0         Blade 1 Z force, node 71, N
        214    8.117E+03                                 F               0         Blade 1 X force, node 72, N
        215    1.303E+02                                 F               0         Blade 1 Y force, node 72, N
        216   -1.062E+03                                 F               0         Blade 1 Z force, node 72, N