
Linearized model: Predictions were generated on 24-Jan-2024 at 11:24:37 using OpenFAST, compiled as a 64-bit application using single precision at commit v3.5.1
 linked with  NWTC Subroutine Library; ElastoDyn; InflowWind; AeroDyn; ServoDyn; HydroDyn; MAP++ (<1.20.10>, <Oct-20-2023>)

Description from the FAST input file: CCT-9 Campign 4 model. Input files to be run with OpenFAST 3.5.0. GitHub branch from Lu Wang (https://github.com/luwang00/openfast/tree/dev) compiled on March 7, 2023.

Simulation information:
   Simulation time:                   508.6500 s
   Rotor Speed:                         0.8940 rad/s
   Azimuth:                             2.9892 rad
   Wind Speed:                         10.0000 m/s
   Number of continuous states:        12
   Number of discrete states:           0
   Number of constraint states:         0
   Number of inputs:                 1890
   Number of outputs:                  14
   Jacobians included in this file?    No

Order of continuous states:
   Row/Column Operating Point                     Rotating Frame? Derivative Order Description
   ---------- ---------------                     --------------- ---------------- -----------
          1    7.507E-03                                 F               2         Platform yaw rotation DOF (internal DOF index = DOF_Y), rad
          2    3.844E-01                                 F               2         1st tower fore-aft bending mode DOF (internal DOF index = DOF_TFA1), m
          3    1.733E-01                                 F               2         1st tower side-to-side bending mode DOF (internal DOF index = DOF_TSS1), m
          4    1.289E-03                                 F               2         2nd tower fore-aft bending mode DOF (internal DOF index = DOF_TFA2), m
          5    7.406E-05                                 F               2         2nd tower side-to-side bending mode DOF (internal DOF index = DOF_TSS2), m
          6    1.418E+00                                 F               2         Variable speed generator DOF (internal DOF index = DOF_GeAz), rad
          7    2.395E-06                                 F               2         First time derivative of Platform yaw rotation DOF (internal DOF index = DOF_Y), rad/s
          8   -9.902E-04                                 F               2         First time derivative of 1st tower fore-aft bending mode DOF (internal DOF index = DOF_TFA1), m/s
          9   -2.736E-04                                 F               2         First time derivative of 1st tower side-to-side bending mode DOF (internal DOF index = DOF_TSS1), m/s
         10    1.909E-06                                 F               2         First time derivative of 2nd tower fore-aft bending mode DOF (internal DOF index = DOF_TFA2), m/s
         11    4.763E-07                                 F               2         First time derivative of 2nd tower side-to-side bending mode DOF (internal DOF index = DOF_TSS2), m/s
         12    8.940E-01                                 F               2         First time derivative of Variable speed generator DOF (internal DOF index = DOF_GeAz), rad/s

Order of continuous state derivatives:
   Row/Column Operating Point                     Rotating Frame? Derivative Order Description
   ---------- ---------------                     --------------- ---------------- -----------
          1    2.395E-06                                 F               2         First time derivative of Platform yaw rotation DOF (internal DOF index = DOF_Y), rad/s
          2   -9.902E-04                                 F               2         First time derivative of 1st tower fore-aft bending mode DOF (internal DOF index = DOF_TFA1), m/s
          3   -2.736E-04                                 F               2         First time derivative of 1st tower side-to-side bending mode DOF (internal DOF index = DOF_TSS1), m/s
          4    1.909E-06                                 F               2         First time derivative of 2nd tower fore-aft bending mode DOF (internal DOF index = DOF_TFA2), m/s
          5    4.763E-07                                 F               2         First time derivative of 2nd tower side-to-side bending mode DOF (internal DOF index = DOF_TSS2), m/s
          6    8.940E-01                                 F               2         First time derivative of Variable speed generator DOF (internal DOF index = DOF_GeAz), rad/s
          7    2.693E-06                                 F               2         First time derivative of First time derivative of Platform yaw rotation DOF (internal DOF index = DOF_Y), rad/s/s
          8   -7.537E-05                                 F               2         First time derivative of First time derivative of 1st tower fore-aft bending mode DOF (internal DOF index = DOF_TFA1), m/s/s
          9   -3.906E-03                                 F               2         First time derivative of First time derivative of 1st tower side-to-side bending mode DOF (internal DOF index = DOF_TSS1), m/s/s
         10   -1.236E-06                                 F               2         First time derivative of First time derivative of 2nd tower fore-aft bending mode DOF (internal DOF index = DOF_TFA2), m/s/s
         11    2.407E-06                                 F               2         First time derivative of First time derivative of 2nd tower side-to-side bending mode DOF (internal DOF index = DOF_TSS2), m/s/s
         12    2.200E-04                                 F               2         First time derivative of First time derivative of Variable speed generator DOF (internal DOF index = DOF_GeAz), rad/s/s

Order of inputs:
     Column   Operating Point                     Rotating Frame? Derivative Order Description
   ---------- ---------------                     --------------- ---------------- -----------
          1    7.776E+01                                 F               0         Blade 1 X force, node 1, N
          2   -8.582E+01                                 F               0         Blade 1 Y force, node 1, N
          3   -4.459E-01                                 F               0         Blade 1 Z force, node 1, N
          4    3.284E+02                                 F               0         Blade 1 X force, node 2, N
          5   -1.571E+02                                 F               0         Blade 1 Y force, node 2, N
          6   -2.438E+01                                 F               0         Blade 1 Z force, node 2, N
          7    4.281E+02                                 F               0         Blade 1 X force, node 3, N
          8   -9.185E+01                                 F               0         Blade 1 Y force, node 3, N
          9   -4.416E+01                                 F               0         Blade 1 Z force, node 3, N
         10    5.628E+02                                 F               0         Blade 1 X force, node 4, N
         11   -4.601E+01                                 F               0         Blade 1 Y force, node 4, N
         12   -6.624E+01                                 F               0         Blade 1 Z force, node 4, N
         13    6.976E+02                                 F               0         Blade 1 X force, node 5, N
         14   -1.741E-01                                 F               0         Blade 1 Y force, node 5, N
         15   -8.833E+01                                 F               0         Blade 1 Z force, node 5, N
         16    8.324E+02                                 F               0         Blade 1 X force, node 6, N
         17    4.567E+01                                 F               0         Blade 1 Y force, node 6, N
         18   -1.104E+02                                 F               0         Blade 1 Z force, node 6, N
         19    9.671E+02                                 F               0         Blade 1 X force, node 7, N
         20    9.150E+01                                 F               0         Blade 1 Y force, node 7, N
         21   -1.325E+02                                 F               0         Blade 1 Z force, node 7, N
         22    1.102E+03                                 F               0         Blade 1 X force, node 8, N
         23    1.373E+02                                 F               0         Blade 1 Y force, node 8, N
         24   -1.546E+02                                 F               0         Blade 1 Z force, node 8, N
         25    1.237E+03                                 F               0         Blade 1 X force, node 9, N
         26    1.832E+02                                 F               0         Blade 1 Y force, node 9, N
         27   -1.767E+02                                 F               0         Blade 1 Z force, node 9, N
         28    1.371E+03                                 F               0         Blade 1 X force, node 10, N
         29    2.290E+02                                 F               0         Blade 1 Y force, node 10, N
         30   -1.988E+02                                 F               0         Blade 1 Z force, node 10, N
         31    1.506E+03                                 F               0         Blade 1 X force, node 11, N
         32    2.749E+02                                 F               0         Blade 1 Y force, node 11, N
         33   -2.209E+02                                 F               0         Blade 1 Z force, node 11, N
         34    1.641E+03                                 F               0         Blade 1 X force, node 12, N
         35    3.207E+02                                 F               0         Blade 1 Y force, node 12, N
         36   -2.430E+02                                 F               0         Blade 1 Z force, node 12, N
         37    1.776E+03                                 F               0         Blade 1 X force, node 13, N
         38    3.665E+02                                 F               0         Blade 1 Y force, node 13, N
         39   -2.650E+02                                 F               0         Blade 1 Z force, node 13, N
         40    1.910E+03                                 F               0         Blade 1 X force, node 14, N
         41    4.124E+02                                 F               0         Blade 1 Y force, node 14, N
         42   -2.871E+02                                 F               0         Blade 1 Z force, node 14, N
         43    2.045E+03                                 F               0         Blade 1 X force, node 15, N
         44    4.582E+02                                 F               0         Blade 1 Y force, node 15, N
         45   -3.092E+02                                 F               0         Blade 1 Z force, node 15, N
         46    2.180E+03                                 F               0         Blade 1 X force, node 16, N
         47    5.041E+02                                 F               0         Blade 1 Y force, node 16, N
         48   -3.313E+02                                 F               0         Blade 1 Z force, node 16, N
         49    2.686E+03                                 F               0         Blade 1 X force, node 17, N
         50    6.354E+02                                 F               0         Blade 1 Y force, node 17, N
         51   -4.098E+02                                 F               0         Blade 1 Z force, node 17, N
         52    2.065E+03                                 F               0         Blade 1 X force, node 18, N
         53    4.727E+02                                 F               0         Blade 1 Y force, node 18, N
         54   -3.133E+02                                 F               0         Blade 1 Z force, node 18, N
         55    2.554E+03                                 F               0         Blade 1 X force, node 19, N
         56    5.567E+02                                 F               0         Blade 1 Y force, node 19, N
         57   -3.845E+02                                 F               0         Blade 1 Z force, node 19, N
         58    2.194E+03                                 F               0         Blade 1 X force, node 20, N
         59    4.562E+02                                 F               0         Blade 1 Y force, node 20, N
         60   -3.278E+02                                 F               0         Blade 1 Z force, node 20, N
         61    3.266E+03                                 F               0         Blade 1 X force, node 21, N
         62    6.432E+02                                 F               0         Blade 1 Y force, node 21, N
         63   -4.841E+02                                 F               0         Blade 1 Z force, node 21, N
         64    2.905E+03                                 F               0         Blade 1 X force, node 22, N
         65    5.414E+02                                 F               0         Blade 1 Y force, node 22, N
         66   -4.272E+02                                 F               0         Blade 1 Z force, node 22, N
         67    3.003E+03                                 F               0         Blade 1 X force, node 23, N
         68    5.324E+02                                 F               0         Blade 1 Y force, node 23, N
         69   -4.387E+02                                 F               0         Blade 1 Z force, node 23, N
         70    3.155E+03                                 F               0         Blade 1 X force, node 24, N
         71    5.326E+02                                 F               0         Blade 1 Y force, node 24, N
         72   -4.580E+02                                 F               0         Blade 1 Z force, node 24, N
         73    3.252E+03                                 F               0         Blade 1 X force, node 25, N
         74    5.227E+02                                 F               0         Blade 1 Y force, node 25, N
         75   -4.692E+02                                 F               0         Blade 1 Z force, node 25, N
         76    3.367E+03                                 F               0         Blade 1 X force, node 26, N
         77    5.157E+02                                 F               0         Blade 1 Y force, node 26, N
         78   -4.830E+02                                 F               0         Blade 1 Z force, node 26, N
         79    4.057E+03                                 F               0         Blade 1 X force, node 27, N
         80    5.910E+02                                 F               0         Blade 1 Y force, node 27, N
         81   -5.785E+02                                 F               0         Blade 1 Z force, node 27, N
         82    3.023E+03                                 F               0         Blade 1 X force, node 28, N
         83    4.192E+02                                 F               0         Blade 1 Y force, node 28, N
         84   -4.287E+02                                 F               0         Blade 1 Z force, node 28, N
         85    3.712E+03                                 F               0         Blade 1 X force, node 29, N
         86    4.939E+02                                 F               0         Blade 1 Y force, node 29, N
         87   -5.242E+02                                 F               0         Blade 1 Z force, node 29, N
         88    3.170E+03                                 F               0         Blade 1 X force, node 30, N
         89    4.050E+02                                 F               0         Blade 1 Y force, node 30, N
         90   -4.458E+02                                 F               0         Blade 1 Z force, node 30, N
         91    4.599E+03                                 F               0         Blade 1 X force, node 31, N
         92    5.602E+02                                 F               0         Blade 1 Y force, node 31, N
         93   -6.438E+02                                 F               0         Blade 1 Z force, node 31, N
         94    4.056E+03                                 F               0         Blade 1 X force, node 32, N
         95    4.707E+02                                 F               0         Blade 1 Y force, node 32, N
         96   -5.652E+02                                 F               0         Blade 1 Z force, node 32, N
         97    4.169E+03                                 F               0         Blade 1 X force, node 33, N
         98    4.627E+02                                 F               0         Blade 1 Y force, node 33, N
         99   -5.787E+02                                 F               0         Blade 1 Z force, node 33, N
        100    4.284E+03                                 F               0         Blade 1 X force, node 34, N
        101    4.546E+02                                 F               0         Blade 1 Y force, node 34, N
        102   -5.923E+02                                 F               0         Blade 1 Z force, node 34, N
        103    4.398E+03                                 F               0         Blade 1 X force, node 35, N
        104    4.464E+02                                 F               0         Blade 1 Y force, node 35, N
        105   -6.059E+02                                 F               0         Blade 1 Z force, node 35, N
        106    4.511E+03                                 F               0         Blade 1 X force, node 36, N
        107    4.380E+02                                 F               0         Blade 1 Y force, node 36, N
        108   -6.193E+02                                 F               0         Blade 1 Z force, node 36, N
        109    5.412E+03                                 F               0         Blade 1 X force, node 37, N
        110    5.014E+02                                 F               0         Blade 1 Y force, node 37, N
        111   -7.404E+02                                 F               0         Blade 1 Z force, node 37, N
        112    3.952E+03                                 F               0         Blade 1 X force, node 38, N
        113    3.496E+02                                 F               0         Blade 1 Y force, node 38, N
        114   -5.389E+02                                 F               0         Blade 1 Z force, node 38, N
        115    4.854E+03                                 F               0         Blade 1 X force, node 39, N
        116    4.130E+02                                 F               0         Blade 1 Y force, node 39, N
        117   -6.600E+02                                 F               0         Blade 1 Z force, node 39, N
        118    4.148E+03                                 F               0         Blade 1 X force, node 40, N
        119    3.393E+02                                 F               0         Blade 1 Y force, node 40, N
        120   -5.625E+02                                 F               0         Blade 1 Z force, node 40, N
        121    5.904E+03                                 F               0         Blade 1 X force, node 41, N
        122    4.613E+02                                 F               0         Blade 1 Y force, node 41, N
        123   -7.983E+02                                 F               0         Blade 1 Z force, node 41, N
        124    5.196E+03                                 F               0         Blade 1 X force, node 42, N
        125    3.872E+02                                 F               0         Blade 1 Y force, node 42, N
        126   -7.005E+02                                 F               0         Blade 1 Z force, node 42, N
        127    5.309E+03                                 F               0         Blade 1 X force, node 43, N
        128    3.784E+02                                 F               0         Blade 1 Y force, node 43, N
        129   -7.138E+02                                 F               0         Blade 1 Z force, node 43, N
        130    5.450E+03                                 F               0         Blade 1 X force, node 44, N
        131    3.715E+02                                 F               0         Blade 1 Y force, node 44, N
        132   -7.310E+02                                 F               0         Blade 1 Z force, node 44, N
        133    5.506E+03                                 F               0         Blade 1 X force, node 45, N
        134    3.587E+02                                 F               0         Blade 1 Y force, node 45, N
        135   -7.366E+02                                 F               0         Blade 1 Z force, node 45, N
        136    5.647E+03                                 F               0         Blade 1 X force, node 46, N
        137    3.518E+02                                 F               0         Blade 1 Y force, node 46, N
        138   -7.538E+02                                 F               0         Blade 1 Z force, node 46, N
        139    6.772E+03                                 F               0         Blade 1 X force, node 47, N
        140    4.018E+02                                 F               0         Blade 1 Y force, node 47, N
        141   -9.016E+02                                 F               0         Blade 1 Z force, node 47, N
        142    4.862E+03                                 F               0         Blade 1 X force, node 48, N
        143    2.749E+02                                 F               0         Blade 1 Y force, node 48, N
        144   -6.458E+02                                 F               0         Blade 1 Z force, node 48, N
        145    5.985E+03                                 F               0         Blade 1 X force, node 49, N
        146    3.247E+02                                 F               0         Blade 1 Y force, node 49, N
        147   -7.936E+02                                 F               0         Blade 1 Z force, node 49, N
        148    5.127E+03                                 F               0         Blade 1 X force, node 50, N
        149    2.667E+02                                 F               0         Blade 1 Y force, node 50, N
        150   -6.785E+02                                 F               0         Blade 1 Z force, node 50, N
        151    7.180E+03                                 F               0         Blade 1 X force, node 51, N
        152    3.555E+02                                 F               0         Blade 1 Y force, node 51, N
        153   -9.483E+02                                 F               0         Blade 1 Z force, node 51, N
        154    6.324E+03                                 F               0         Blade 1 X force, node 52, N
        155    2.977E+02                                 F               0         Blade 1 Y force, node 52, N
        156   -8.335E+02                                 F               0         Blade 1 Z force, node 52, N
        157    6.438E+03                                 F               0         Blade 1 X force, node 53, N
        158    2.887E+02                                 F               0         Blade 1 Y force, node 53, N
        159   -8.470E+02                                 F               0         Blade 1 Z force, node 53, N
        160    6.623E+03                                 F               0         Blade 1 X force, node 54, N
        161    2.827E+02                                 F               0         Blade 1 Y force, node 54, N
        162   -8.698E+02                                 F               0         Blade 1 Z force, node 54, N
        163    6.592E+03                                 F               0         Blade 1 X force, node 55, N
        164    2.676E+02                                 F               0         Blade 1 Y force, node 55, N
        165   -8.643E+02                                 F               0         Blade 1 Z force, node 55, N
        166    6.778E+03                                 F               0         Blade 1 X force, node 56, N
        167    2.615E+02                                 F               0         Blade 1 Y force, node 56, N
        168   -8.870E+02                                 F               0         Blade 1 Z force, node 56, N
        169    8.138E+03                                 F               0         Blade 1 X force, node 57, N
        170    2.970E+02                                 F               0         Blade 1 Y force, node 57, N
        171   -1.063E+03                                 F               0         Blade 1 Z force, node 57, N
        172    5.756E+03                                 F               0         Blade 1 X force, node 58, N
        173    1.986E+02                                 F               0         Blade 1 Y force, node 58, N
        174   -7.508E+02                                 F               0         Blade 1 Z force, node 58, N
        175    7.117E+03                                 F               0         Blade 1 X force, node 59, N
        176    2.341E+02                                 F               0         Blade 1 Y force, node 59, N
        177   -9.270E+02                                 F               0         Blade 1 Z force, node 59, N
        178    6.123E+03                                 F               0         Blade 1 X force, node 60, N
        179    1.916E+02                                 F               0         Blade 1 Y force, node 60, N
        180   -7.965E+02                                 F               0         Blade 1 Z force, node 60, N
        181    8.450E+03                                 F               0         Blade 1 X force, node 61, N
        182    2.490E+02                                 F               0         Blade 1 Y force, node 61, N
        183   -1.097E+03                                 F               0         Blade 1 Z force, node 61, N
        184    7.453E+03                                 F               0         Blade 1 X force, node 62, N
        185    2.062E+02                                 F               0         Blade 1 Y force, node 62, N
        186   -9.666E+02                                 F               0         Blade 1 Z force, node 62, N
        187    7.564E+03                                 F               0         Blade 1 X force, node 63, N
        188    1.968E+02                                 F               0         Blade 1 Y force, node 63, N
        189   -9.796E+02                                 F               0         Blade 1 Z force, node 63, N
        190    7.804E+03                                 F               0         Blade 1 X force, node 64, N
        191    1.905E+02                                 F               0         Blade 1 Y force, node 64, N
        192   -1.009E+03                                 F               0         Blade 1 Z force, node 64, N
        193    7.661E+03                                 F               0         Blade 1 X force, node 65, N
        194    1.752E+02                                 F               0         Blade 1 Y force, node 65, N
        195   -9.895E+02                                 F               0         Blade 1 Z force, node 65, N
        196    7.904E+03                                 F               0         Blade 1 X force, node 66, N
        197    1.691E+02                                 F               0         Blade 1 Y force, node 66, N
        198   -1.020E+03                                 F               0         Blade 1 Z force, node 66, N
        199    9.512E+03                                 F               0         Blade 1 X force, node 67, N
        200    1.887E+02                                 F               0         Blade 1 Y force, node 67, N
        201   -1.225E+03                                 F               0         Blade 1 Z force, node 67, N
        202    6.638E+03                                 F               0         Blade 1 X force, node 68, N
        203    1.218E+02                                 F               0         Blade 1 Y force, node 68, N
        204   -8.540E+02                                 F               0         Blade 1 Z force, node 68, N
        205    8.244E+03                                 F               0         Blade 1 X force, node 69, N
        206    1.412E+02                                 F               0         Blade 1 Y force, node 69, N
        207   -1.060E+03                                 F               0         Blade 1 Z force, node 69, N
        208    7.126E+03                                 F               0         Blade 1 X force, node 70, N
        209    1.134E+02                                 F               0         Blade 1 Y force, node 70, N
        210   -9.150E+02                                 F               0         Blade 1 Z force, node 70, N
        211    9.698E+03                                 F               0         Blade 1 X force, node 71, N
        212    1.408E+02                                 F               0         Blade 1 Y force, node 71, N
        213   -1.244E+03                                 F               0         Blade 1 Z force, node 71, N
        214    8.577E+03                                 F               0         Blade 1 X force, node 72, N
        215    1.126E+02                                 F               0         Blade 1 Y force, node 72, N
        216   -1.099E+03                                 F               0         Blade 1 Z force, node 72, N