
Linearized model: Predictions were generated on 24-Jan-2024 at 11:24:37 using OpenFAST, compiled as a 64-bit application using single precision at commit v3.5.1
 linked with  NWTC Subroutine Library; ElastoDyn; InflowWind; AeroDyn; ServoDyn; HydroDyn; MAP++ (<1.20.10>, <Oct-20-2023>)

Description from the FAST input file: CCT-9 Campign 4 model. Input files to be run with OpenFAST 3.5.0. GitHub branch from Lu Wang (https://github.com/luwang00/openfast/tree/dev) compiled on March 7, 2023.

Simulation information:
   Simulation time:                   501.2500 s
   Rotor Speed:                         0.8939 rad/s
   Azimuth:                             2.6575 rad
   Wind Speed:                         10.0000 m/s
   Number of continuous states:         0
   Number of discrete states:           0
   Number of constraint states:         0
   Number of inputs:                 1746
   Number of outputs:                   4
   Jacobians included in this file?    No

Order of inputs:
     Column   Operating Point                     Rotating Frame? Derivative Order Description
   ---------- ---------------                     --------------- ---------------- -----------
          1    1.535E-01                                 F               0         Tower X translation displacement, node 1, m
          2   -1.355E+00                                 F               0         Tower Y translation displacement, node 1, m
          3   -4.807E-02                                 F               0         Tower Z translation displacement, node 1, m
          4    3.902E-01                                 F               0         Tower X translation displacement, node 2, m
          5   -1.889E+00                                 F               0         Tower Y translation displacement, node 2, m
          6   -6.192E-02                                 F               0         Tower Z translation displacement, node 2, m
          7    6.403E-01                                 F               0         Tower X translation displacement, node 3, m
          8   -2.429E+00                                 F               0         Tower Y translation displacement, node 3, m
          9   -7.626E-02                                 F               0         Tower Z translation displacement, node 3, m
         10    9.002E-01                                 F               0         Tower X translation displacement, node 4, m
         11   -2.973E+00                                 F               0         Tower Y translation displacement, node 4, m
         12   -9.098E-02                                 F               0         Tower Z translation displacement, node 4, m
         13    1.168E+00                                 F               0         Tower X translation displacement, node 5, m
         14   -3.521E+00                                 F               0         Tower Y translation displacement, node 5, m
         15   -1.060E-01                                 F               0         Tower Z translation displacement, node 5, m
         16    1.442E+00                                 F               0         Tower X translation displacement, node 6, m
         17   -4.071E+00                                 F               0         Tower Y translation displacement, node 6, m
         18   -1.213E-01                                 F               0         Tower Z translation displacement, node 6, m
         19    1.720E+00                                 F               0         Tower X translation displacement, node 7, m
         20   -4.624E+00                                 F               0         Tower Y translation displacement, node 7, m
         21   -1.368E-01                                 F               0         Tower Z translation displacement, node 7, m
         22    2.001E+00                                 F               0         Tower X translation displacement, node 8, m
         23   -5.179E+00                                 F               0         Tower Y translation displacement, node 8, m
         24   -1.525E-01                                 F               0         Tower Z translation displacement, node 8, m
         25    2.285E+00                                 F               0         Tower X translation displacement, node 9, m
         26   -5.736E+00                                 F               0         Tower Y translation displacement, node 9, m
         27   -1.683E-01                                 F               0         Tower Z translation displacement, node 9, m
         28    2.569E+00                                 F               0         Tower X translation displacement, node 10, m
         29   -6.293E+00                                 F               0         Tower Y translation displacement, node 10, m
         30   -1.842E-01                                 F               0         Tower Z translation displacement, node 10, m
         31    2.855E+00                                 F               0         Tower X translation displacement, node 11, m
         32   -6.852E+00                                 F               0         Tower Y translation displacement, node 11, m
         33   -2.001E-01                                 F               0         Tower Z translation displacement, node 11, m
         34    9.998E-01,  7.900E-03, -1.840E-02         F               0         Tower X orientation angle, node 1, rad
         35   -7.098E-03,  9.990E-01,  4.325E-02         F               0         Tower Y orientation angle, node 1, rad
         36    1.873E-02, -4.311E-02,  9.989E-01         F               0         Tower Z orientation angle, node 1, rad
         37    9.998E-01,  7.945E-03, -1.942E-02         F               0         Tower X orientation angle, node 2, rad
         38   -7.091E-03,  9.990E-01,  4.365E-02         F               0         Tower Y orientation angle, node 2, rad
         39    1.975E-02, -4.351E-02,  9.989E-01         F               0         Tower Z orientation angle, node 2, rad
         40    9.998E-01,  7.983E-03, -2.029E-02         F               0         Tower X orientation angle, node 3, rad
         41   -7.083E-03,  9.990E-01,  4.402E-02         F               0         Tower Y orientation angle, node 3, rad
         42    2.063E-02, -4.386E-02,  9.988E-01         F               0         Tower Z orientation angle, node 3, rad
         43    9.997E-01,  8.014E-03, -2.101E-02         F               0         Tower X orientation angle, node 4, rad
         44   -7.077E-03,  9.990E-01,  4.433E-02         F               0         Tower Y orientation angle, node 4, rad
         45    2.135E-02, -4.417E-02,  9.988E-01         F               0         Tower Z orientation angle, node 4, rad
         46    9.997E-01,  8.040E-03, -2.158E-02         F               0         Tower X orientation angle, node 5, rad
         47   -7.071E-03,  9.990E-01,  4.460E-02         F               0         Tower Y orientation angle, node 5, rad
         48    2.192E-02, -4.444E-02,  9.988E-01         F               0         Tower Z orientation angle, node 5, rad
         49    9.997E-01,  8.059E-03, -2.201E-02         F               0         Tower X orientation angle, node 6, rad
         50   -7.066E-03,  9.990E-01,  4.483E-02         F               0         Tower Y orientation angle, node 6, rad
         51    2.235E-02, -4.466E-02,  9.988E-01         F               0         Tower Z orientation angle, node 6, rad
         52    9.997E-01,  8.073E-03, -2.232E-02         F               0         Tower X orientation angle, node 7, rad
         53   -7.062E-03,  9.990E-01,  4.501E-02         F               0         Tower Y orientation angle, node 7, rad
         54    2.266E-02, -4.484E-02,  9.987E-01         F               0         Tower Z orientation angle, node 7, rad
         55    9.997E-01,  8.082E-03, -2.252E-02         F               0         Tower X orientation angle, node 8, rad
         56   -7.059E-03,  9.990E-01,  4.516E-02         F               0         Tower Y orientation angle, node 8, rad
         57    2.286E-02, -4.498E-02,  9.987E-01         F               0         Tower Z orientation angle, node 8, rad
         58    9.997E-01,  8.088E-03, -2.265E-02         F               0         Tower X orientation angle, node 9, rad
         59   -7.056E-03,  9.990E-01,  4.526E-02         F               0         Tower Y orientation angle, node 9, rad
         60    2.299E-02, -4.509E-02,  9.987E-01         F               0         Tower Z orientation angle, node 9, rad
         61    9.997E-01,  8.091E-03, -2.272E-02         F               0         Tower X orientation angle, node 10, rad
         62   -7.055E-03,  9.989E-01,  4.533E-02         F               0         Tower Y orientation angle, node 10, rad
         63    2.306E-02, -4.515E-02,  9.987E-01         F               0         Tower Z orientation angle, node 10, rad
         64    9.997E-01,  8.092E-03, -2.275E-02         F               0         Tower X orientation angle, node 11, rad
         65   -7.054E-03,  9.989E-01,  4.536E-02         F               0         Tower Y orientation angle, node 11, rad
         66    2.309E-02, -4.519E-02,  9.987E-01         F               0         Tower Z orientation angle, node 11, rad
         67    5.361E-07                                 F               0         Tower X translation velocity, node 1, m/s
         68    2.329E-07                                 F               0         Tower Y translation velocity, node 1, m/s
         69    0.000E+00                                 F               0         Tower Z translation velocity, node 1, m/s
         70   -7.056E-06                                 F               0         Tower X translation velocity, node 2, m/s
         71   -3.357E-06                                 F               0         Tower Y translation velocity, node 2, m/s
         72   -7.961E-09                                 F               0         Tower Z translation velocity, node 2, m/s
         73   -3.640E-05                                 F               0         Tower X translation velocity, node 3, m/s
         74   -1.658E-05                                 F               0         Tower Y translation velocity, node 3, m/s
         75    8.611E-09                                 F               0         Tower Z translation velocity, node 3, m/s
         76   -8.508E-05                                 F               0         Tower X translation velocity, node 4, m/s
         77   -3.746E-05                                 F               0         Tower Y translation velocity, node 4, m/s
         78    1.132E-07                                 F               0         Tower Z translation velocity, node 4, m/s
         79   -1.525E-04                                 F               0         Tower X translation velocity, node 5, m/s
         80   -6.505E-05                                 F               0         Tower Y translation velocity, node 5, m/s
         81    3.533E-07                                 F               0         Tower Z translation velocity, node 5, m/s
         82   -2.379E-04                                 F               0         Tower X translation velocity, node 6, m/s
         83   -9.836E-05                                 F               0         Tower Y translation velocity, node 6, m/s
         84    7.609E-07                                 F               0         Tower Z translation velocity, node 6, m/s
         85   -3.385E-04                                 F               0         Tower X translation velocity, node 7, m/s
         86   -1.361E-04                                 F               0         Tower Y translation velocity, node 7, m/s
         87    1.336E-06                                 F               0         Tower Z translation velocity, node 7, m/s
         88   -4.540E-04                                 F               0         Tower X translation velocity, node 8, m/s
         89   -1.778E-04                                 F               0         Tower Y translation velocity, node 8, m/s
         90    2.092E-06                                 F               0         Tower Z translation velocity, node 8, m/s
         91   -5.820E-04                                 F               0         Tower X translation velocity, node 9, m/s
         92   -2.226E-04                                 F               0         Tower Y translation velocity, node 9, m/s
         93    3.012E-06                                 F               0         Tower Z translation velocity, node 9, m/s
         94   -7.195E-04                                 F               0         Tower X translation velocity, node 10, m/s
         95   -2.695E-04                                 F               0         Tower Y translation velocity, node 10, m/s
         96    4.064E-06                                 F               0         Tower Z translation velocity, node 10, m/s
         97   -8.633E-04                                 F               0         Tower X translation velocity, node 11, m/s
         98   -3.177E-04                                 F               0         Tower Y translation velocity, node 11, m/s
         99    5.205E-06                                 F               0         Tower Z translation velocity, node 11, m/s
        100    3.039E+00                                 F               0         Hub X translation displacement, node 1, m
        101   -7.294E+00                                 F               0         Hub Y translation displacement, node 1, m
        102    3.549E-02                                 F               0         Hub Z translation displacement, node 1, m
        103    9.918E-01,  1.277E-02, -1.270E-01         F               0         Hub X orientation angle, node 1, rad
        104    6.557E-02, -9.047E-01,  4.210E-01         F               0         Hub Y orientation angle, node 1, rad
        105   -1.095E-01, -4.259E-01, -8.981E-01         F               0         Hub Z orientation angle, node 1, rad
        106    8.866E-01                                 F               0         Hub X rotation velocity, node 1, rad/s
        107    1.141E-02                                 F               0         Hub Y rotation velocity, node 1, rad/s
        108   -1.135E-01                                 F               0         Hub Z rotation velocity, node 1, rad/s
        109    9.894E-01,  3.960E-02, -1.395E-01         F               0         Blade root 1 X orientation angle, node 1, rad
        110    9.496E-02, -9.039E-01,  4.171E-01         F               0         Blade root 1 Y orientation angle, node 1, rad
        111   -1.095E-01, -4.259E-01, -8.981E-01         F               0         Blade root 1 Z orientation angle, node 1, rad
        112    9.952E-01,  1.029E-02, -9.764E-02         F               0         Blade root 2 X orientation angle, node 1, rad
        113   -9.816E-02,  8.385E-02, -9.916E-01         F               0         Blade root 2 Y orientation angle, node 1, rad
        114   -2.016E-03,  9.964E-01,  8.445E-02         F               0         Blade root 2 Z orientation angle, node 1, rad
        115    9.895E-01, -1.159E-02, -1.438E-01         F               0         Blade root 3 X orientation angle, node 1, rad
        116    9.147E-02,  8.212E-01,  5.633E-01         F               0         Blade root 3 Y orientation angle, node 1, rad
        117    1.115E-01, -5.705E-01,  8.137E-01         F               0         Blade root 3 Z orientation angle, node 1, rad
        118    1.853E+00                                 F               0         Blade 1 X translation displacement, node 1, m
        119   -9.653E+00                                 F               0         Blade 1 Y translation displacement, node 1, m
        120   -1.045E+01                                 F               0         Blade 1 Z translation displacement, node 1, m
        121    1.567E+00                                 F               0         Blade 1 X translation displacement, node 2, m
        122   -1.022E+01                                 F               0         Blade 1 Y translation displacement, node 2, m
        123   -1.298E+01                                 F               0         Blade 1 Z translation displacement, node 2, m
        124   -2.318E+00                                 F               0         Blade 1 X translation displacement, node 3, m
        125   -1.795E+01                                 F               0         Blade 1 Y translation displacement, node 3, m
        126   -4.733E+01                                 F               0         Blade 1 Z translation displacement, node 3, m
        127   -3.146E+00                                 F               0         Blade 1 X translation displacement, node 4, m
        128   -1.960E+01                                 F               0         Blade 1 Y translation displacement, node 4, m
        129   -5.465E+01                                 F               0         Blade 1 Z translation displacement, node 4, m
        130   -3.974E+00                                 F               0         Blade 1 X translation displacement, node 5, m
        131   -2.125E+01                                 F               0         Blade 1 Y translation displacement, node 5, m
        132   -6.197E+01                                 F               0         Blade 1 Z translation displacement, node 5, m
        133   -4.802E+00                                 F               0         Blade 1 X translation displacement, node 6, m
        134   -2.289E+01                                 F               0         Blade 1 Y translation displacement, node 6, m
        135   -6.929E+01                                 F               0         Blade 1 Z translation displacement, node 6, m
        136   -5.630E+00                                 F               0         Blade 1 X translation displacement, node 7, m
        137   -2.454E+01                                 F               0         Blade 1 Y translation displacement, node 7, m
        138   -7.661E+01                                 F               0         Blade 1 Z translation displacement, node 7, m
        139   -6.458E+00                                 F               0         Blade 1 X translation displacement, node 8, m
        140   -2.619E+01                                 F               0         Blade 1 Y translation displacement, node 8, m
        141   -8.393E+01                                 F               0         Blade 1 Z translation displacement, node 8, m
        142   -7.286E+00                                 F               0         Blade 1 X translation displacement, node 9, m
        143   -2.784E+01                                 F               0         Blade 1 Y translation displacement, node 9, m
        144   -9.125E+01                                 F               0         Blade 1 Z translation displacement, node 9, m
        145   -8.114E+00                                 F               0         Blade 1 X translation displacement, node 10, m
        146   -2.948E+01                                 F               0         Blade 1 Y translation displacement, node 10, m
        147   -9.857E+01                                 F               0         Blade 1 Z translation displacement, node 10, m
        148   -8.942E+00                                 F               0         Blade 1 X translation displacement, node 11, m
        149   -3.113E+01                                 F               0         Blade 1 Y translation displacement, node 11, m
        150   -1.059E+02                                 F               0         Blade 1 Z translation displacement, node 11, m
        151   -9.770E+00                                 F               0         Blade 1 X translation displacement, node 12, m
        152   -3.278E+01                                 F               0         Blade 1 Y translation displacement, node 12, m
        153   -1.132E+02                                 F               0         Blade 1 Z translation displacement, node 12, m
        154   -1.060E+01                                 F               0         Blade 1 X translation displacement, node 13, m
        155   -3.443E+01                                 F               0         Blade 1 Y translation displacement, node 13, m
        156   -1.205E+02                                 F               0         Blade 1 Z translation displacement, node 13, m
        157   -1.143E+01                                 F               0         Blade 1 X translation displacement, node 14, m
        158   -3.607E+01                                 F               0         Blade 1 Y translation displacement, node 14, m
        159   -1.279E+02                                 F               0         Blade 1 Z translation displacement, node 14, m
        160   -1.225E+01                                 F               0         Blade 1 X translation displacement, node 15, m
        161   -3.772E+01                                 F               0         Blade 1 Y translation displacement, node 15, m
        162   -1.352E+02                                 F               0         Blade 1 Z translation displacement, node 15, m
        163   -1.308E+01                                 F               0         Blade 1 X translation displacement, node 16, m
        164   -3.937E+01                                 F               0         Blade 1 Y translation displacement, node 16, m
        165   -1.425E+02                                 F               0         Blade 1 Z translation displacement, node 16, m
        166   -1.391E+01                                 F               0         Blade 1 X translation displacement, node 17, m
        167   -4.101E+01                                 F               0         Blade 1 Y translation displacement, node 17, m
        168   -1.498E+02                                 F               0         Blade 1 Z translation displacement, node 17, m
        169   -1.474E+01                                 F               0         Blade 1 X translation displacement, node 18, m
        170   -4.266E+01                                 F               0         Blade 1 Y translation displacement, node 18, m
        171   -1.571E+02                                 F               0         Blade 1 Z translation displacement, node 18, m
        172   -1.557E+01                                 F               0         Blade 1 X translation displacement, node 19, m
        173   -4.431E+01                                 F               0         Blade 1 Y translation displacement, node 19, m
        174   -1.645E+02                                 F               0         Blade 1 Z translation displacement, node 19, m
        175   -1.639E+01                                 F               0         Blade 1 X translation displacement, node 20, m
        176   -4.596E+01                                 F               0         Blade 1 Y translation displacement, node 20, m
        177   -1.718E+02                                 F               0         Blade 1 Z translation displacement, node 20, m
        178   -1.722E+01                                 F               0         Blade 1 X translation displacement, node 21, m
        179   -4.760E+01                                 F               0         Blade 1 Y translation displacement, node 21, m
        180   -1.791E+02                                 F               0         Blade 1 Z translation displacement, node 21, m
        181   -1.805E+01                                 F               0         Blade 1 X translation displacement, node 22, m
        182   -4.925E+01                                 F               0         Blade 1 Y translation displacement, node 22, m
        183   -1.864E+02                                 F               0         Blade 1 Z translation displacement, node 22, m
        184   -1.888E+01                                 F               0         Blade 1 X translation displacement, node 23, m
        185   -5.090E+01                                 F               0         Blade 1 Y translation displacement, node 23, m
        186   -1.937E+02                                 F               0         Blade 1 Z translation displacement, node 23, m
        187   -1.970E+01                                 F               0         Blade 1 X translation displacement, node 24, m
        188   -5.254E+01                                 F               0         Blade 1 Y translation displacement, node 24, m
        189   -2.011E+02                                 F               0         Blade 1 Z translation displacement, node 24, m
        190   -2.053E+01                                 F               0         Blade 1 X translation displacement, node 25, m
        191   -5.419E+01                                 F               0         Blade 1 Y translation displacement, node 25, m
        192   -2.084E+02                                 F               0         Blade 1 Z translation displacement, node 25, m
        193   -2.136E+01                                 F               0         Blade 1 X translation displacement, node 26, m
        194   -5.584E+01                                 F               0         Blade 1 Y translation displacement, node 26, m
        195   -2.157E+02                                 F               0         Blade 1 Z translation displacement, node 26, m
        196   -2.219E+01                                 F               0         Blade 1 X translation displacement, node 27, m
        197   -5.749E+01                                 F               0         Blade 1 Y translation displacement, node 27, m
        198   -2.230E+02                                 F               0         Blade 1 Z translation displacement, node 27, m
        199   -2.289E+01                                 F               0         Blade 1 X translation displacement, node 28, m
        200   -5.888E+01                                 F               0         Blade 1 Y translation displacement, node 28, m
        201   -2.292E+02                                 F               0         Blade 1 Z translation displacement, node 28, m
        202    8.373E-01,  4.474E-01, -3.143E-01         F               0         Blade 1 X orientation angle, node 1, rad
        203    5.357E-01, -7.864E-01,  3.076E-01         F               0         Blade 1 Y orientation angle, node 1, rad
        204   -1.095E-01, -4.259E-01, -8.981E-01         F               0         Blade 1 Z orientation angle, node 1, rad
        205    8.373E-01,  4.474E-01, -3.143E-01         F               0         Blade 1 X orientation angle, node 2, rad
        206    5.357E-01, -7.864E-01,  3.076E-01         F               0         Blade 1 Y orientation angle, node 2, rad
        207   -1.095E-01, -4.259E-01, -8.981E-01         F               0         Blade 1 Z orientation angle, node 2, rad
        208    9.404E-01,  2.483E-01, -2.324E-01         F               0         Blade 1 X orientation angle, node 3, rad
        209    3.220E-01, -8.700E-01,  3.733E-01         F               0         Blade 1 Y orientation angle, node 3, rad
        210   -1.095E-01, -4.259E-01, -8.981E-01         F               0         Blade 1 Z orientation angle, node 3, rad
        211    9.531E-01,  2.114E-01, -2.165E-01         F               0         Blade 1 X orientation angle, node 4, rad
        212    2.820E-01, -8.797E-01,  3.828E-01         F               0         Blade 1 Y orientation angle, node 4, rad
        213   -1.095E-01, -4.259E-01, -8.981E-01         F               0         Blade 1 Z orientation angle, node 4, rad
        214    9.620E-01,  1.821E-01, -2.037E-01         F               0         Blade 1 X orientation angle, node 5, rad
        215    2.503E-01, -8.863E-01,  3.898E-01         F               0         Blade 1 Y orientation angle, node 5, rad
        216   -1.095E-01, -4.259E-01, -8.981E-01         F               0         Blade 1 Z orientation angle, node 5, rad
        217    9.683E-01,  1.585E-01, -1.932E-01         F               0         Blade 1 X orientation angle, node 6, rad
        218    2.246E-01, -8.908E-01,  3.950E-01         F               0         Blade 1 Y orientation angle, node 6, rad
        219   -1.095E-01, -4.259E-01, -8.981E-01         F               0         Blade 1 Z orientation angle, node 6, rad
        220    9.729E-01,  1.390E-01, -1.846E-01         F               0         Blade 1 X orientation angle, node 7, rad
        221    2.035E-01, -8.940E-01,  3.991E-01         F               0         Blade 1 Y orientation angle, node 7, rad
        222   -1.095E-01, -4.259E-01, -8.981E-01         F               0         Blade 1 Z orientation angle, node 7, rad
        223    9.765E-01,  1.228E-01, -1.773E-01         F               0         Blade 1 X orientation angle, node 8, rad
        224    1.858E-01, -8.964E-01,  4.024E-01         F               0         Blade 1 Y orientation angle, node 8, rad
        225   -1.095E-01, -4.259E-01, -8.981E-01         F               0         Blade 1 Z orientation angle, node 8, rad
        226    9.792E-01,  1.090E-01, -1.711E-01         F               0         Blade 1 X orientation angle, node 9, rad
        227    1.708E-01, -8.982E-01,  4.051E-01         F               0         Blade 1 Y orientation angle, node 9, rad