
Linearized model: Predictions were generated on 24-Jan-2024 at 11:24:37 using OpenFAST, compiled as a 64-bit application using single precision at commit v3.5.1
 linked with  NWTC Subroutine Library; ElastoDyn; InflowWind; AeroDyn; ServoDyn; HydroDyn; MAP++ (<1.20.10>, <Oct-20-2023>)

Description from the FAST input file: CCT-9 Campign 4 model. Input files to be run with OpenFAST 3.5.0. GitHub branch from Lu Wang (https://github.com/luwang00/openfast/tree/dev) compiled on March 7, 2023.

Simulation information:
   Simulation time:                   504.4500 s
   Rotor Speed:                         0.8939 rad/s
   Azimuth:                             5.5185 rad
   Wind Speed:                         10.0000 m/s
   Number of continuous states:        12
   Number of discrete states:           0
   Number of constraint states:         0
   Number of inputs:                 3988
   Number of outputs:                  31
   Jacobians included in this file?    No

Order of continuous states:
   Row/Column Operating Point                     Rotating Frame? Derivative Order Description
   ---------- ---------------                     --------------- ---------------- -----------
          1    7.516E-03                                 F               2         ED Platform yaw rotation DOF (internal DOF index = DOF_Y), rad
          2    3.840E-01                                 F               2         ED 1st tower fore-aft bending mode DOF (internal DOF index = DOF_TFA1), m
          3    1.651E-01                                 F               2         ED 1st tower side-to-side bending mode DOF (internal DOF index = DOF_TSS1), m
          4    1.289E-03                                 F               2         ED 2nd tower fore-aft bending mode DOF (internal DOF index = DOF_TFA2), m
          5    7.596E-05                                 F               2         ED 2nd tower side-to-side bending mode DOF (internal DOF index = DOF_TSS2), m
          6    3.948E+00                                 F               2         ED Variable speed generator DOF (internal DOF index = DOF_GeAz), rad
          7   -2.257E-07                                 F               2         ED First time derivative of Platform yaw rotation DOF (internal DOF index = DOF_Y), rad/s
          8    6.880E-04                                 F               2         ED First time derivative of 1st tower fore-aft bending mode DOF (internal DOF index = DOF_TFA1), m/s
          9   -3.498E-04                                 F               2         ED First time derivative of 1st tower side-to-side bending mode DOF (internal DOF index = DOF_TSS1), m/s
         10   -4.081E-06                                 F               2         ED First time derivative of 2nd tower fore-aft bending mode DOF (internal DOF index = DOF_TFA2), m/s
         11    1.432E-07                                 F               2         ED First time derivative of 2nd tower side-to-side bending mode DOF (internal DOF index = DOF_TSS2), m/s
         12    8.939E-01                                 F               2         ED First time derivative of Variable speed generator DOF (internal DOF index = DOF_GeAz), rad/s

Order of continuous state derivatives:
   Row/Column Operating Point                     Rotating Frame? Derivative Order Description
   ---------- ---------------                     --------------- ---------------- -----------
          1   -2.257E-07                                 F               2         First time derivative of ED Platform yaw rotation DOF (internal DOF index = DOF_Y), rad/s
          2    6.880E-04                                 F               2         First time derivative of ED 1st tower fore-aft bending mode DOF (internal DOF index = DOF_TFA1), m/s
          3   -3.498E-04                                 F               2         First time derivative of ED 1st tower side-to-side bending mode DOF (internal DOF index = DOF_TSS1), m/s
          4   -4.081E-06                                 F               2         First time derivative of ED 2nd tower fore-aft bending mode DOF (internal DOF index = DOF_TFA2), m/s
          5    1.432E-07                                 F               2         First time derivative of ED 2nd tower side-to-side bending mode DOF (internal DOF index = DOF_TSS2), m/s
          6    8.939E-01                                 F               2         First time derivative of ED Variable speed generator DOF (internal DOF index = DOF_GeAz), rad/s
          7   -4.237E-06                                 F               2         First time derivative of ED First time derivative of Platform yaw rotation DOF (internal DOF index = DOF_Y), rad/s/s
          8    5.486E-04                                 F               2         First time derivative of ED First time derivative of 1st tower fore-aft bending mode DOF (internal DOF index = DOF_TFA1), m/s/s
          9    2.855E-03                                 F               2         First time derivative of ED First time derivative of 1st tower side-to-side bending mode DOF (internal DOF index = DOF_TSS1), m/s/s
         10   -4.748E-07                                 F               2         First time derivative of ED First time derivative of 2nd tower fore-aft bending mode DOF (internal DOF index = DOF_TFA2), m/s/s
         11   -4.659E-08                                 F               2         First time derivative of ED First time derivative of 2nd tower side-to-side bending mode DOF (internal DOF index = DOF_TSS2), m/s/s
         12   -2.171E-04                                 F               2         First time derivative of ED First time derivative of Variable speed generator DOF (internal DOF index = DOF_GeAz), rad/s/s

Order of inputs:
     Column   Operating Point                     Rotating Frame? Derivative Order Description
   ---------- ---------------                     --------------- ---------------- -----------
          1   -1.080E+01                                 F               0         IfW X-component position of node 1 (hub), m
          2    0.000E+00                                 F               0         IfW Y-component position of node 1 (hub), m
          3    1.497E+02                                 F               0         IfW Z-component position of node 1 (hub), m
          4   -7.280E+00                                 F               0         IfW X-component position of node 2 (blade 1, node 1), m
          5   -3.629E+00                                 F               0         IfW Y-component position of node 2 (blade 1, node 1), m
          6    1.539E+02                                 F               0         IfW Z-component position of node 2 (blade 1, node 1), m
          7   -7.164E+00                                 F               0         IfW X-component position of node 3 (blade 1, node 2), m
          8   -2.748E+00                                 F               0         IfW Y-component position of node 3 (blade 1, node 2), m
          9    1.549E+02                                 F               0         IfW Z-component position of node 3 (blade 1, node 2), m
         10   -5.583E+00                                 F               0         IfW X-component position of node 4 (blade 1, node 3), m
         11    9.229E+00                                 F               0         IfW Y-component position of node 4 (blade 1, node 3), m
         12    1.685E+02                                 F               0         IfW Z-component position of node 4 (blade 1, node 3), m
         13   -5.246E+00                                 F               0         IfW X-component position of node 5 (blade 1, node 4), m
         14    1.178E+01                                 F               0         IfW Y-component position of node 5 (blade 1, node 4), m
         15    1.713E+02                                 F               0         IfW Z-component position of node 5 (blade 1, node 4), m
         16   -4.909E+00                                 F               0         IfW X-component position of node 6 (blade 1, node 5), m
         17    1.433E+01                                 F               0         IfW Y-component position of node 6 (blade 1, node 5), m
         18    1.742E+02                                 F               0         IfW Z-component position of node 6 (blade 1, node 5), m
         19   -4.572E+00                                 F               0         IfW X-component position of node 7 (blade 1, node 6), m
         20    1.688E+01                                 F               0         IfW Y-component position of node 7 (blade 1, node 6), m
         21    1.771E+02                                 F               0         IfW Z-component position of node 7 (blade 1, node 6), m
         22   -4.236E+00                                 F               0         IfW X-component position of node 8 (blade 1, node 7), m
         23    1.944E+01                                 F               0         IfW Y-component position of node 8 (blade 1, node 7), m
         24    1.800E+02                                 F               0         IfW Z-component position of node 8 (blade 1, node 7), m
         25   -3.899E+00                                 F               0         IfW X-component position of node 9 (blade 1, node 8), m
         26    2.199E+01                                 F               0         IfW Y-component position of node 9 (blade 1, node 8), m
         27    1.829E+02                                 F               0         IfW Z-component position of node 9 (blade 1, node 8), m
         28   -3.562E+00                                 F               0         IfW X-component position of node 10 (blade 1, node 9), m
         29    2.454E+01                                 F               0         IfW Y-component position of node 10 (blade 1, node 9), m
         30    1.858E+02                                 F               0         IfW Z-component position of node 10 (blade 1, node 9), m
         31   -3.225E+00                                 F               0         IfW X-component position of node 11 (blade 1, node 10), m
         32    2.709E+01                                 F               0         IfW Y-component position of node 11 (blade 1, node 10), m
         33    1.887E+02                                 F               0         IfW Z-component position of node 11 (blade 1, node 10), m
         34   -2.888E+00                                 F               0         IfW X-component position of node 12 (blade 1, node 11), m
         35    2.964E+01                                 F               0         IfW Y-component position of node 12 (blade 1, node 11), m
         36    1.915E+02                                 F               0         IfW Z-component position of node 12 (blade 1, node 11), m
         37   -2.552E+00                                 F               0         IfW X-component position of node 13 (blade 1, node 12), m
         38    3.220E+01                                 F               0         IfW Y-component position of node 13 (blade 1, node 12), m
         39    1.944E+02                                 F               0         IfW Z-component position of node 13 (blade 1, node 12), m
         40   -2.215E+00                                 F               0         IfW X-component position of node 14 (blade 1, node 13), m
         41    3.475E+01                                 F               0         IfW Y-component position of node 14 (blade 1, node 13), m
         42    1.973E+02                                 F               0         IfW Z-component position of node 14 (blade 1, node 13), m
         43   -1.878E+00                                 F               0         IfW X-component position of node 15 (blade 1, node 14), m
         44    3.730E+01                                 F               0         IfW Y-component position of node 15 (blade 1, node 14), m
         45    2.002E+02                                 F               0         IfW Z-component position of node 15 (blade 1, node 14), m
         46   -1.541E+00                                 F               0         IfW X-component position of node 16 (blade 1, node 15), m
         47    3.985E+01                                 F               0         IfW Y-component position of node 16 (blade 1, node 15), m
         48    2.031E+02                                 F               0         IfW Z-component position of node 16 (blade 1, node 15), m
         49   -1.204E+00                                 F               0         IfW X-component position of node 17 (blade 1, node 16), m
         50    4.240E+01                                 F               0         IfW Y-component position of node 17 (blade 1, node 16), m
         51    2.060E+02                                 F               0         IfW Z-component position of node 17 (blade 1, node 16), m
         52   -8.675E-01                                 F               0         IfW X-component position of node 18 (blade 1, node 17), m
         53    4.496E+01                                 F               0         IfW Y-component position of node 18 (blade 1, node 17), m
         54    2.089E+02                                 F               0         IfW Z-component position of node 18 (blade 1, node 17), m
         55   -5.307E-01                                 F               0         IfW X-component position of node 19 (blade 1, node 18), m
         56    4.751E+01                                 F               0         IfW Y-component position of node 19 (blade 1, node 18), m
         57    2.118E+02                                 F               0         IfW Z-component position of node 19 (blade 1, node 18), m
         58   -1.938E-01                                 F               0         IfW X-component position of node 20 (blade 1, node 19), m
         59    5.006E+01                                 F               0         IfW Y-component position of node 20 (blade 1, node 19), m
         60    2.146E+02                                 F               0         IfW Z-component position of node 20 (blade 1, node 19), m
         61    1.430E-01                                 F               0         IfW X-component position of node 21 (blade 1, node 20), m
         62    5.261E+01                                 F               0         IfW Y-component position of node 21 (blade 1, node 20), m
         63    2.175E+02                                 F               0         IfW Z-component position of node 21 (blade 1, node 20), m
         64    4.798E-01                                 F               0         IfW X-component position of node 22 (blade 1, node 21), m
         65    5.516E+01                                 F               0         IfW Y-component position of node 22 (blade 1, node 21), m
         66    2.204E+02                                 F               0         IfW Z-component position of node 22 (blade 1, node 21), m
         67    8.167E-01                                 F               0         IfW X-component position of node 23 (blade 1, node 22), m
         68    5.772E+01                                 F               0         IfW Y-component position of node 23 (blade 1, node 22), m
         69    2.233E+02                                 F               0         IfW Z-component position of node 23 (blade 1, node 22), m
         70    1.153E+00                                 F               0         IfW X-component position of node 24 (blade 1, node 23), m
         71    6.027E+01                                 F               0         IfW Y-component position of node 24 (blade 1, node 23), m
         72    2.262E+02                                 F               0         IfW Z-component position of node 24 (blade 1, node 23), m
         73    1.490E+00                                 F               0         IfW X-component position of node 25 (blade 1, node 24), m
         74    6.282E+01                                 F               0         IfW Y-component position of node 25 (blade 1, node 24), m
         75    2.291E+02                                 F               0         IfW Z-component position of node 25 (blade 1, node 24), m
         76    1.827E+00                                 F               0         IfW X-component position of node 26 (blade 1, node 25), m
         77    6.537E+01                                 F               0         IfW Y-component position of node 26 (blade 1, node 25), m
         78    2.320E+02                                 F               0         IfW Z-component position of node 26 (blade 1, node 25), m
         79    2.164E+00                                 F               0         IfW X-component position of node 27 (blade 1, node 26), m
         80    6.792E+01                                 F               0         IfW Y-component position of node 27 (blade 1, node 26), m
         81    2.349E+02                                 F               0         IfW Z-component position of node 27 (blade 1, node 26), m
         82    2.501E+00                                 F               0         IfW X-component position of node 28 (blade 1, node 27), m
         83    7.048E+01                                 F               0         IfW Y-component position of node 28 (blade 1, node 27), m
         84    2.377E+02                                 F               0         IfW Z-component position of node 28 (blade 1, node 27), m
         85    2.786E+00                                 F               0         IfW X-component position of node 29 (blade 1, node 28), m
         86    7.264E+01                                 F               0         IfW Y-component position of node 29 (blade 1, node 28), m
         87    2.402E+02                                 F               0         IfW Z-component position of node 29 (blade 1, node 28), m
         88   -7.556E+00                                 F               0         IfW X-component position of node 30 (blade 2, node 1), m
         89   -1.272E+01                                 F               0         IfW Y-component position of node 30 (blade 2, node 1), m
         90    1.508E+02                                 F               0         IfW Z-component position of node 30 (blade 2, node 1), m
         91   -7.506E+00                                 F               0         IfW X-component position of node 31 (blade 2, node 2), m
         92   -1.403E+01                                 F               0         IfW Y-component position of node 31 (blade 2, node 2), m
         93    1.511E+02                                 F               0         IfW Z-component position of node 31 (blade 2, node 2), m
         94   -6.829E+00                                 F               0         IfW X-component position of node 32 (blade 2, node 3), m
         95   -3.183E+01                                 F               0         IfW Y-component position of node 32 (blade 2, node 3), m
         96    1.546E+02                                 F               0         IfW Z-component position of node 32 (blade 2, node 3), m
         97   -6.685E+00                                 F               0         IfW X-component position of node 33 (blade 2, node 4), m
         98   -3.562E+01                                 F               0         IfW Y-component position of node 33 (blade 2, node 4), m
         99    1.553E+02                                 F               0         IfW Z-component position of node 33 (blade 2, node 4), m
        100   -6.541E+00                                 F               0         IfW X-component position of node 34 (blade 2, node 5), m
        101   -3.941E+01                                 F               0         IfW Y-component position of node 34 (blade 2, node 5), m
        102    1.561E+02                                 F               0         IfW Z-component position of node 34 (blade 2, node 5), m
        103   -6.397E+00                                 F               0         IfW X-component position of node 35 (blade 2, node 6), m
        104   -4.320E+01                                 F               0         IfW Y-component position of node 35 (blade 2, node 6), m
        105    1.568E+02                                 F               0         IfW Z-component position of node 35 (blade 2, node 6), m
        106   -6.252E+00                                 F               0         IfW X-component position of node 36 (blade 2, node 7), m
        107   -4.700E+01                                 F               0         IfW Y-component position of node 36 (blade 2, node 7), m
        108    1.576E+02                                 F               0         IfW Z-component position of node 36 (blade 2, node 7), m
        109   -6.108E+00                                 F               0         IfW X-component position of node 37 (blade 2, node 8), m
        110   -5.079E+01                                 F               0         IfW Y-component position of node 37 (blade 2, node 8), m
        111    1.583E+02                                 F               0         IfW Z-component position of node 37 (blade 2, node 8), m
        112   -5.964E+00                                 F               0         IfW X-component position of node 38 (blade 2, node 9), m
        113   -5.458E+01                                 F               0         IfW Y-component position of node 38 (blade 2, node 9), m
        114    1.591E+02                                 F               0         IfW Z-component position of node 38 (blade 2, node 9), m
        115   -5.820E+00                                 F               0         IfW X-component position of node 39 (blade 2, node 10), m
        116   -5.837E+01                                 F               0         IfW Y-component position of node 39 (blade 2, node 10), m
        117    1.598E+02                                 F               0         IfW Z-component position of node 39 (blade 2, node 10), m
        118   -5.676E+00                                 F               0         IfW X-component position of node 40 (blade 2, node 11), m
        119   -6.217E+01                                 F               0         IfW Y-component position of node 40 (blade 2, node 11), m
        120    1.606E+02                                 F               0         IfW Z-component position of node 40 (blade 2, node 11), m
        121   -5.531E+00                                 F               0         IfW X-component position of node 41 (blade 2, node 12), m
        122   -6.596E+01                                 F               0         IfW Y-component position of node 41 (blade 2, node 12), m
        123    1.613E+02                                 F               0         IfW Z-component position of node 41 (blade 2, node 12), m
        124   -5.387E+00                                 F               0         IfW X-component position of node 42 (blade 2, node 13), m
        125   -6.975E+01                                 F               0         IfW Y-component position of node 42 (blade 2, node 13), m
        126    1.620E+02                                 F               0         IfW Z-component position of node 42 (blade 2, node 13), m
        127   -5.243E+00                                 F               0         IfW X-component position of node 43 (blade 2, node 14), m
        128   -7.354E+01                                 F               0         IfW Y-component position of node 43 (blade 2, node 14), m
        129    1.628E+02                                 F               0         IfW Z-component position of node 43 (blade 2, node 14), m
        130   -5.099E+00                                 F               0         IfW X-component position of node 44 (blade 2, node 15), m
        131   -7.734E+01                                 F               0         IfW Y-component position of node 44 (blade 2, node 15), m
        132    1.635E+02                                 F               0         IfW Z-component position of node 44 (blade 2, node 15), m
        133   -4.955E+00                                 F               0         IfW X-component position of node 45 (blade 2, node 16), m
        134   -8.113E+01                                 F               0         IfW Y-component position of node 45 (blade 2, node 16), m
        135    1.643E+02                                 F               0         IfW Z-component position of node 45 (blade 2, node 16), m
        136   -4.810E+00                                 F               0         IfW X-component position of node 46 (blade 2, node 17), m
        137   -8.492E+01                                 F               0         IfW Y-component position of node 46 (blade 2, node 17), m
        138    1.650E+02                                 F               0         IfW Z-component position of node 46 (blade 2, node 17), m
        139   -4.666E+00                                 F               0         IfW X-component position of node 47 (blade 2, node 18), m
        140   -8.871E+01                                 F               0         IfW Y-component position of node 47 (blade 2, node 18), m
        141    1.658E+02                                 F               0         IfW Z-component position of node 47 (blade 2, node 18), m
        142   -4.522E+00                                 F               0         IfW X-component position of node 48 (blade 2, node 19), m
        143   -9.251E+01                                 F               0         IfW Y-component position of node 48 (blade 2, node 19), m
        144    1.665E+02                                 F               0         IfW Z-component position of node 48 (blade 2, node 19), m
        145   -4.378E+00                                 F               0         IfW X-component position of node 49 (blade 2, node 20), m
        146   -9.630E+01                                 F               0         IfW Y-component position of node 49 (blade 2, node 20), m
        147    1.673E+02                                 F               0         IfW Z-component position of node 49 (blade 2, node 20), m
        148   -4.233E+00                                 F               0         IfW X-component position of node 50 (blade 2, node 21), m
        149   -1.001E+02                                 F               0         IfW Y-component position of node 50 (blade 2, node 21), m
        150    1.680E+02                                 F               0         IfW Z-component position of node 50 (blade 2, node 21), m
        151   -4.089E+00                                 F               0         IfW X-component position of node 51 (blade 2, node 22), m
        152   -1.039E+02                                 F               0         IfW Y-component position of node 51 (blade 2, node 22), m
        153    1.687E+02                                 F               0         IfW Z-component position of node 51 (blade 2, node 22), m
        154   -3.945E+00                                 F               0         IfW X-component position of node 52 (blade 2, node 23), m
        155   -1.077E+02                                 F               0         IfW Y-component position of node 52 (blade 2, node 23), m
        156    1.695E+02                                 F               0         IfW Z-component position of node 52 (blade 2, node 23), m
        157   -3.801E+00                                 F               0         IfW X-component position of node 53 (blade 2, node 24), m
        158   -1.115E+02                                 F               0         IfW Y-component position of node 53 (blade 2, node 24), m
        159    1.702E+02                                 F               0         IfW Z-component position of node 53 (blade 2, node 24), m
        160   -3.657E+00                                 F               0         IfW X-component position of node 54 (blade 2, node 25), m
        161   -1.153E+02                                 F               0         IfW Y-component position of node 54 (blade 2, node 25), m
        162    1.710E+02                                 F               0         IfW Z-component position of node 54 (blade 2, node 25), m
        163   -3.512E+00                                 F               0         IfW X-component position of node 55 (blade 2, node 26), m
        164   -1.191E+02                                 F               0         IfW Y-component position of node 55 (blade 2, node 26), m
        165    1.717E+02                                 F               0         IfW Z-component position of node 55 (blade 2, node 26), m
        166   -3.368E+00                                 F               0         IfW X-component position of node 56 (blade 2, node 27), m
        167   -1.228E+02                                 F               0         IfW Y-component position of node 56 (blade 2, node 27), m
        168    1.725E+02                                 F               0         IfW Z-component position of node 56 (blade 2, node 27), m
        169   -3.246E+00                                 F               0         IfW X-component position of node 57 (blade 2, node 28), m
        170   -1.261E+02                                 F               0         IfW Y-component position of node 57 (blade 2, node 28), m