
Linearized model: Predictions were generated on 24-Jan-2024 at 11:24:37 using OpenFAST, compiled as a 64-bit application using single precision at commit v3.5.1
 linked with  NWTC Subroutine Library; ElastoDyn; InflowWind; AeroDyn; ServoDyn; HydroDyn; MAP++ (<1.20.10>, <Oct-20-2023>)

Description from the FAST input file: CCT-9 Campign 4 model. Input files to be run with OpenFAST 3.5.0. GitHub branch from Lu Wang (https://github.com/luwang00/openfast/tree/dev) compiled on March 7, 2023.

Simulation information:
   Simulation time:                   501.5000 s
   Rotor Speed:                         0.8940 rad/s
   Azimuth:                             2.8810 rad
   Wind Speed:                         10.0000 m/s
   Number of continuous states:        12
   Number of discrete states:           0
   Number of constraint states:         0
   Number of inputs:                 3988
   Number of outputs:                  31
   Jacobians included in this file?    No

Order of continuous states:
   Row/Column Operating Point                     Rotating Frame? Derivative Order Description
   ---------- ---------------                     --------------- ---------------- -----------
          1    7.508E-03                                 F               2         ED Platform yaw rotation DOF (internal DOF index = DOF_Y), rad
          2    3.845E-01                                 F               2         ED 1st tower fore-aft bending mode DOF (internal DOF index = DOF_TFA1), m
          3    1.737E-01                                 F               2         ED 1st tower side-to-side bending mode DOF (internal DOF index = DOF_TSS1), m
          4    1.289E-03                                 F               2         ED 2nd tower fore-aft bending mode DOF (internal DOF index = DOF_TFA2), m
          5    7.403E-05                                 F               2         ED 2nd tower side-to-side bending mode DOF (internal DOF index = DOF_TSS2), m
          6    1.310E+00                                 F               2         ED Variable speed generator DOF (internal DOF index = DOF_GeAz), rad
          7    1.575E-06                                 F               2         ED First time derivative of Platform yaw rotation DOF (internal DOF index = DOF_Y), rad/s
          8   -9.587E-04                                 F               2         ED First time derivative of 1st tower fore-aft bending mode DOF (internal DOF index = DOF_TFA1), m/s
          9   -8.792E-04                                 F               2         ED First time derivative of 1st tower side-to-side bending mode DOF (internal DOF index = DOF_TSS1), m/s
         10    2.306E-06                                 F               2         ED First time derivative of 2nd tower fore-aft bending mode DOF (internal DOF index = DOF_TFA2), m/s
         11    1.873E-07                                 F               2         ED First time derivative of 2nd tower side-to-side bending mode DOF (internal DOF index = DOF_TSS2), m/s
         12    8.940E-01                                 F               2         ED First time derivative of Variable speed generator DOF (internal DOF index = DOF_GeAz), rad/s

Order of continuous state derivatives:
   Row/Column Operating Point                     Rotating Frame? Derivative Order Description
   ---------- ---------------                     --------------- ---------------- -----------
          1    1.575E-06                                 F               2         First time derivative of ED Platform yaw rotation DOF (internal DOF index = DOF_Y), rad/s
          2   -9.587E-04                                 F               2         First time derivative of ED 1st tower fore-aft bending mode DOF (internal DOF index = DOF_TFA1), m/s
          3   -8.792E-04                                 F               2         First time derivative of ED 1st tower side-to-side bending mode DOF (internal DOF index = DOF_TSS1), m/s
          4    2.306E-06                                 F               2         First time derivative of ED 2nd tower fore-aft bending mode DOF (internal DOF index = DOF_TFA2), m/s
          5    1.873E-07                                 F               2         First time derivative of ED 2nd tower side-to-side bending mode DOF (internal DOF index = DOF_TSS2), m/s
          6    8.940E-01                                 F               2         First time derivative of ED Variable speed generator DOF (internal DOF index = DOF_GeAz), rad/s
          7    3.133E-06                                 F               2         First time derivative of ED First time derivative of Platform yaw rotation DOF (internal DOF index = DOF_Y), rad/s/s
          8   -2.071E-04                                 F               2         First time derivative of ED First time derivative of 1st tower fore-aft bending mode DOF (internal DOF index = DOF_TFA1), m/s/s
          9   -4.719E-03                                 F               2         First time derivative of ED First time derivative of 1st tower side-to-side bending mode DOF (internal DOF index = DOF_TSS1), m/s/s
         10   -5.048E-06                                 F               2         First time derivative of ED First time derivative of 2nd tower fore-aft bending mode DOF (internal DOF index = DOF_TFA2), m/s/s
         11   -3.437E-07                                 F               2         First time derivative of ED First time derivative of 2nd tower side-to-side bending mode DOF (internal DOF index = DOF_TSS2), m/s/s
         12    2.358E-04                                 F               2         First time derivative of ED First time derivative of Variable speed generator DOF (internal DOF index = DOF_GeAz), rad/s/s

Order of inputs:
     Column   Operating Point                     Rotating Frame? Derivative Order Description
   ---------- ---------------                     --------------- ---------------- -----------
          1   -1.080E+01                                 F               0         IfW X-component position of node 1 (hub), m
          2    0.000E+00                                 F               0         IfW Y-component position of node 1 (hub), m
          3    1.497E+02                                 F               0         IfW Z-component position of node 1 (hub), m
          4   -8.434E+00                                 F               0         IfW X-component position of node 2 (blade 1, node 1), m
          5   -8.484E+00                                 F               0         IfW Y-component position of node 2 (blade 1, node 1), m
          6    1.444E+02                                 F               0         IfW Z-component position of node 2 (blade 1, node 1), m
          7   -8.596E+00                                 F               0         IfW X-component position of node 3 (blade 1, node 2), m
          8   -8.770E+00                                 F               0         IfW Y-component position of node 3 (blade 1, node 2), m
          9    1.431E+02                                 F               0         IfW Z-component position of node 3 (blade 1, node 2), m
         10   -1.080E+01                                 F               0         IfW X-component position of node 4 (blade 1, node 3), m
         11   -1.267E+01                                 F               0         IfW Y-component position of node 4 (blade 1, node 3), m
         12    1.255E+02                                 F               0         IfW Z-component position of node 4 (blade 1, node 3), m
         13   -1.127E+01                                 F               0         IfW X-component position of node 5 (blade 1, node 4), m
         14   -1.350E+01                                 F               0         IfW Y-component position of node 5 (blade 1, node 4), m
         15    1.218E+02                                 F               0         IfW Z-component position of node 5 (blade 1, node 4), m
         16   -1.174E+01                                 F               0         IfW X-component position of node 6 (blade 1, node 5), m
         17   -1.433E+01                                 F               0         IfW Y-component position of node 6 (blade 1, node 5), m
         18    1.180E+02                                 F               0         IfW Z-component position of node 6 (blade 1, node 5), m
         19   -1.221E+01                                 F               0         IfW X-component position of node 7 (blade 1, node 6), m
         20   -1.516E+01                                 F               0         IfW Y-component position of node 7 (blade 1, node 6), m
         21    1.143E+02                                 F               0         IfW Z-component position of node 7 (blade 1, node 6), m
         22   -1.268E+01                                 F               0         IfW X-component position of node 8 (blade 1, node 7), m
         23   -1.599E+01                                 F               0         IfW Y-component position of node 8 (blade 1, node 7), m
         24    1.105E+02                                 F               0         IfW Z-component position of node 8 (blade 1, node 7), m
         25   -1.315E+01                                 F               0         IfW X-component position of node 9 (blade 1, node 8), m
         26   -1.682E+01                                 F               0         IfW Y-component position of node 9 (blade 1, node 8), m
         27    1.068E+02                                 F               0         IfW Z-component position of node 9 (blade 1, node 8), m
         28   -1.361E+01                                 F               0         IfW X-component position of node 10 (blade 1, node 9), m
         29   -1.765E+01                                 F               0         IfW Y-component position of node 10 (blade 1, node 9), m
         30    1.030E+02                                 F               0         IfW Z-component position of node 10 (blade 1, node 9), m
         31   -1.408E+01                                 F               0         IfW X-component position of node 11 (blade 1, node 10), m
         32   -1.849E+01                                 F               0         IfW Y-component position of node 11 (blade 1, node 10), m
         33    9.928E+01                                 F               0         IfW Z-component position of node 11 (blade 1, node 10), m
         34   -1.455E+01                                 F               0         IfW X-component position of node 12 (blade 1, node 11), m
         35   -1.932E+01                                 F               0         IfW Y-component position of node 12 (blade 1, node 11), m
         36    9.554E+01                                 F               0         IfW Z-component position of node 12 (blade 1, node 11), m
         37   -1.502E+01                                 F               0         IfW X-component position of node 13 (blade 1, node 12), m
         38   -2.015E+01                                 F               0         IfW Y-component position of node 13 (blade 1, node 12), m
         39    9.179E+01                                 F               0         IfW Z-component position of node 13 (blade 1, node 12), m
         40   -1.549E+01                                 F               0         IfW X-component position of node 14 (blade 1, node 13), m
         41   -2.098E+01                                 F               0         IfW Y-component position of node 14 (blade 1, node 13), m
         42    8.804E+01                                 F               0         IfW Z-component position of node 14 (blade 1, node 13), m
         43   -1.596E+01                                 F               0         IfW X-component position of node 15 (blade 1, node 14), m
         44   -2.181E+01                                 F               0         IfW Y-component position of node 15 (blade 1, node 14), m
         45    8.429E+01                                 F               0         IfW Z-component position of node 15 (blade 1, node 14), m
         46   -1.643E+01                                 F               0         IfW X-component position of node 16 (blade 1, node 15), m
         47   -2.264E+01                                 F               0         IfW Y-component position of node 16 (blade 1, node 15), m
         48    8.054E+01                                 F               0         IfW Z-component position of node 16 (blade 1, node 15), m
         49   -1.690E+01                                 F               0         IfW X-component position of node 17 (blade 1, node 16), m
         50   -2.347E+01                                 F               0         IfW Y-component position of node 17 (blade 1, node 16), m
         51    7.680E+01                                 F               0         IfW Z-component position of node 17 (blade 1, node 16), m
         52   -1.737E+01                                 F               0         IfW X-component position of node 18 (blade 1, node 17), m
         53   -2.430E+01                                 F               0         IfW Y-component position of node 18 (blade 1, node 17), m
         54    7.305E+01                                 F               0         IfW Z-component position of node 18 (blade 1, node 17), m
         55   -1.784E+01                                 F               0         IfW X-component position of node 19 (blade 1, node 18), m
         56   -2.513E+01                                 F               0         IfW Y-component position of node 19 (blade 1, node 18), m
         57    6.930E+01                                 F               0         IfW Z-component position of node 19 (blade 1, node 18), m
         58   -1.831E+01                                 F               0         IfW X-component position of node 20 (blade 1, node 19), m
         59   -2.596E+01                                 F               0         IfW Y-component position of node 20 (blade 1, node 19), m
         60    6.555E+01                                 F               0         IfW Z-component position of node 20 (blade 1, node 19), m
         61   -1.878E+01                                 F               0         IfW X-component position of node 21 (blade 1, node 20), m
         62   -2.679E+01                                 F               0         IfW Y-component position of node 21 (blade 1, node 20), m
         63    6.180E+01                                 F               0         IfW Z-component position of node 21 (blade 1, node 20), m
         64   -1.925E+01                                 F               0         IfW X-component position of node 22 (blade 1, node 21), m
         65   -2.762E+01                                 F               0         IfW Y-component position of node 22 (blade 1, node 21), m
         66    5.806E+01                                 F               0         IfW Z-component position of node 22 (blade 1, node 21), m
         67   -1.972E+01                                 F               0         IfW X-component position of node 23 (blade 1, node 22), m
         68   -2.845E+01                                 F               0         IfW Y-component position of node 23 (blade 1, node 22), m
         69    5.431E+01                                 F               0         IfW Z-component position of node 23 (blade 1, node 22), m
         70   -2.018E+01                                 F               0         IfW X-component position of node 24 (blade 1, node 23), m
         71   -2.929E+01                                 F               0         IfW Y-component position of node 24 (blade 1, node 23), m
         72    5.056E+01                                 F               0         IfW Z-component position of node 24 (blade 1, node 23), m
         73   -2.065E+01                                 F               0         IfW X-component position of node 25 (blade 1, node 24), m
         74   -3.012E+01                                 F               0         IfW Y-component position of node 25 (blade 1, node 24), m
         75    4.681E+01                                 F               0         IfW Z-component position of node 25 (blade 1, node 24), m
         76   -2.112E+01                                 F               0         IfW X-component position of node 26 (blade 1, node 25), m
         77   -3.095E+01                                 F               0         IfW Y-component position of node 26 (blade 1, node 25), m
         78    4.306E+01                                 F               0         IfW Z-component position of node 26 (blade 1, node 25), m
         79   -2.159E+01                                 F               0         IfW X-component position of node 27 (blade 1, node 26), m
         80   -3.178E+01                                 F               0         IfW Y-component position of node 27 (blade 1, node 26), m
         81    3.931E+01                                 F               0         IfW Z-component position of node 27 (blade 1, node 26), m
         82   -2.206E+01                                 F               0         IfW X-component position of node 28 (blade 1, node 27), m
         83   -3.261E+01                                 F               0         IfW Y-component position of node 28 (blade 1, node 27), m
         84    3.557E+01                                 F               0         IfW Z-component position of node 28 (blade 1, node 27), m
         85   -2.246E+01                                 F               0         IfW X-component position of node 29 (blade 1, node 28), m
         86   -3.331E+01                                 F               0         IfW Y-component position of node 29 (blade 1, node 28), m
         87    3.239E+01                                 F               0         IfW Z-component position of node 29 (blade 1, node 28), m
         88   -7.616E+00                                 F               0         IfW X-component position of node 30 (blade 2, node 1), m
         89   -2.013E+00                                 F               0         IfW Y-component position of node 30 (blade 2, node 1), m
         90    1.514E+02                                 F               0         IfW Z-component position of node 30 (blade 2, node 1), m
         91   -7.581E+00                                 F               0         IfW X-component position of node 31 (blade 2, node 2), m
         92   -7.409E-01                                 F               0         IfW Y-component position of node 31 (blade 2, node 2), m
         93    1.518E+02                                 F               0         IfW Z-component position of node 31 (blade 2, node 2), m
         94   -7.103E+00                                 F               0         IfW X-component position of node 32 (blade 2, node 3), m
         95    1.656E+01                                 F               0         IfW Y-component position of node 32 (blade 2, node 3), m
         96    1.573E+02                                 F               0         IfW Z-component position of node 32 (blade 2, node 3), m
         97   -7.001E+00                                 F               0         IfW X-component position of node 33 (blade 2, node 4), m
         98    2.025E+01                                 F               0         IfW Y-component position of node 33 (blade 2, node 4), m
         99    1.585E+02                                 F               0         IfW Z-component position of node 33 (blade 2, node 4), m
        100   -6.899E+00                                 F               0         IfW X-component position of node 34 (blade 2, node 5), m
        101    2.393E+01                                 F               0         IfW Y-component position of node 34 (blade 2, node 5), m
        102    1.596E+02                                 F               0         IfW Z-component position of node 34 (blade 2, node 5), m
        103   -6.798E+00                                 F               0         IfW X-component position of node 35 (blade 2, node 6), m
        104    2.762E+01                                 F               0         IfW Y-component position of node 35 (blade 2, node 6), m
        105    1.608E+02                                 F               0         IfW Z-component position of node 35 (blade 2, node 6), m
        106   -6.696E+00                                 F               0         IfW X-component position of node 36 (blade 2, node 7), m
        107    3.131E+01                                 F               0         IfW Y-component position of node 36 (blade 2, node 7), m
        108    1.620E+02                                 F               0         IfW Z-component position of node 36 (blade 2, node 7), m
        109   -6.594E+00                                 F               0         IfW X-component position of node 37 (blade 2, node 8), m
        110    3.499E+01                                 F               0         IfW Y-component position of node 37 (blade 2, node 8), m
        111    1.631E+02                                 F               0         IfW Z-component position of node 37 (blade 2, node 8), m
        112   -6.492E+00                                 F               0         IfW X-component position of node 38 (blade 2, node 9), m
        113    3.868E+01                                 F               0         IfW Y-component position of node 38 (blade 2, node 9), m
        114    1.643E+02                                 F               0         IfW Z-component position of node 38 (blade 2, node 9), m
        115   -6.390E+00                                 F               0         IfW X-component position of node 39 (blade 2, node 10), m
        116    4.237E+01                                 F               0         IfW Y-component position of node 39 (blade 2, node 10), m
        117    1.655E+02                                 F               0         IfW Z-component position of node 39 (blade 2, node 10), m
        118   -6.289E+00                                 F               0         IfW X-component position of node 40 (blade 2, node 11), m
        119    4.605E+01                                 F               0         IfW Y-component position of node 40 (blade 2, node 11), m
        120    1.666E+02                                 F               0         IfW Z-component position of node 40 (blade 2, node 11), m
        121   -6.187E+00                                 F               0         IfW X-component position of node 41 (blade 2, node 12), m
        122    4.974E+01                                 F               0         IfW Y-component position of node 41 (blade 2, node 12), m
        123    1.678E+02                                 F               0         IfW Z-component position of node 41 (blade 2, node 12), m
        124   -6.085E+00                                 F               0         IfW X-component position of node 42 (blade 2, node 13), m
        125    5.343E+01                                 F               0         IfW Y-component position of node 42 (blade 2, node 13), m
        126    1.690E+02                                 F               0         IfW Z-component position of node 42 (blade 2, node 13), m
        127   -5.983E+00                                 F               0         IfW X-component position of node 43 (blade 2, node 14), m
        128    5.711E+01                                 F               0         IfW Y-component position of node 43 (blade 2, node 14), m
        129    1.701E+02                                 F               0         IfW Z-component position of node 43 (blade 2, node 14), m
        130   -5.881E+00                                 F               0         IfW X-component position of node 44 (blade 2, node 15), m
        131    6.080E+01                                 F               0         IfW Y-component position of node 44 (blade 2, node 15), m
        132    1.713E+02                                 F               0         IfW Z-component position of node 44 (blade 2, node 15), m
        133   -5.779E+00                                 F               0         IfW X-component position of node 45 (blade 2, node 16), m
        134    6.448E+01                                 F               0         IfW Y-component position of node 45 (blade 2, node 16), m
        135    1.725E+02                                 F               0         IfW Z-component position of node 45 (blade 2, node 16), m
        136   -5.678E+00                                 F               0         IfW X-component position of node 46 (blade 2, node 17), m
        137    6.817E+01                                 F               0         IfW Y-component position of node 46 (blade 2, node 17), m
        138    1.736E+02                                 F               0         IfW Z-component position of node 46 (blade 2, node 17), m
        139   -5.576E+00                                 F               0         IfW X-component position of node 47 (blade 2, node 18), m
        140    7.186E+01                                 F               0         IfW Y-component position of node 47 (blade 2, node 18), m
        141    1.748E+02                                 F               0         IfW Z-component position of node 47 (blade 2, node 18), m
        142   -5.474E+00                                 F               0         IfW X-component position of node 48 (blade 2, node 19), m
        143    7.554E+01                                 F               0         IfW Y-component position of node 48 (blade 2, node 19), m
        144    1.760E+02                                 F               0         IfW Z-component position of node 48 (blade 2, node 19), m
        145   -5.372E+00                                 F               0         IfW X-component position of node 49 (blade 2, node 20), m
        146    7.923E+01                                 F               0         IfW Y-component position of node 49 (blade 2, node 20), m
        147    1.771E+02                                 F               0         IfW Z-component position of node 49 (blade 2, node 20), m
        148   -5.270E+00                                 F               0         IfW X-component position of node 50 (blade 2, node 21), m
        149    8.292E+01                                 F               0         IfW Y-component position of node 50 (blade 2, node 21), m
        150    1.783E+02                                 F               0         IfW Z-component position of node 50 (blade 2, node 21), m
        151   -5.169E+00                                 F               0         IfW X-component position of node 51 (blade 2, node 22), m
        152    8.660E+01                                 F               0         IfW Y-component position of node 51 (blade 2, node 22), m
        153    1.795E+02                                 F               0         IfW Z-component position of node 51 (blade 2, node 22), m
        154   -5.067E+00                                 F               0         IfW X-component position of node 52 (blade 2, node 23), m
        155    9.029E+01                                 F               0         IfW Y-component position of node 52 (blade 2, node 23), m
        156    1.806E+02                                 F               0         IfW Z-component position of node 52 (blade 2, node 23), m
        157   -4.965E+00                                 F               0         IfW X-component position of node 53 (blade 2, node 24), m
        158    9.398E+01                                 F               0         IfW Y-component position of node 53 (blade 2, node 24), m
        159    1.818E+02                                 F               0         IfW Z-component position of node 53 (blade 2, node 24), m
        160   -4.863E+00                                 F               0         IfW X-component position of node 54 (blade 2, node 25), m
        161    9.766E+01                                 F               0         IfW Y-component position of node 54 (blade 2, node 25), m
        162    1.830E+02                                 F               0         IfW Z-component position of node 54 (blade 2, node 25), m
        163   -4.761E+00                                 F               0         IfW X-component position of node 55 (blade 2, node 26), m
        164    1.013E+02                                 F               0         IfW Y-component position of node 55 (blade 2, node 26), m
        165    1.841E+02                                 F               0         IfW Z-component position of node 55 (blade 2, node 26), m
        166   -4.660E+00                                 F               0         IfW X-component position of node 56 (blade 2, node 27), m
        167    1.050E+02                                 F               0         IfW Y-component position of node 56 (blade 2, node 27), m
        168    1.853E+02                                 F               0         IfW Z-component position of node 56 (blade 2, node 27), m
        169   -4.573E+00                                 F               0         IfW X-component position of node 57 (blade 2, node 28), m
        170    1.082E+02                                 F               0         IfW Y-component position of node 57 (blade 2, node 28), m