
Linearized model: Predictions were generated on 24-Jan-2024 at 11:24:37 using OpenFAST, compiled as a 64-bit application using single precision at commit v3.5.1
 linked with  NWTC Subroutine Library; ElastoDyn; InflowWind; AeroDyn; ServoDyn; HydroDyn; MAP++ (<1.20.10>, <Oct-20-2023>)

Description from the FAST input file: CCT-9 Campign 4 model. Input files to be run with OpenFAST 3.5.0. GitHub branch from Lu Wang (https://github.com/luwang00/openfast/tree/dev) compiled on March 7, 2023.

Simulation information:
   Simulation time:                   502.9750 s
   Rotor Speed:                         0.8942 rad/s
   Azimuth:                             4.1998 rad
   Wind Speed:                         10.0000 m/s
   Number of continuous states:        12
   Number of discrete states:           0
   Number of constraint states:         0
   Number of inputs:                 3988
   Number of outputs:                  31
   Jacobians included in this file?    No

Order of continuous states:
   Row/Column Operating Point                     Rotating Frame? Derivative Order Description
   ---------- ---------------                     --------------- ---------------- -----------
          1    7.512E-03                                 F               2         ED Platform yaw rotation DOF (internal DOF index = DOF_Y), rad
          2    3.835E-01                                 F               2         ED 1st tower fore-aft bending mode DOF (internal DOF index = DOF_TFA1), m
          3    1.688E-01                                 F               2         ED 1st tower side-to-side bending mode DOF (internal DOF index = DOF_TSS1), m
          4    1.291E-03                                 F               2         ED 2nd tower fore-aft bending mode DOF (internal DOF index = DOF_TFA2), m
          5    7.483E-05                                 F               2         ED 2nd tower side-to-side bending mode DOF (internal DOF index = DOF_TSS2), m
          6    2.629E+00                                 F               2         ED Variable speed generator DOF (internal DOF index = DOF_GeAz), rad
          7    3.440E-06                                 F               2         ED First time derivative of Platform yaw rotation DOF (internal DOF index = DOF_Y), rad/s
          8   -9.527E-05                                 F               2         ED First time derivative of 1st tower fore-aft bending mode DOF (internal DOF index = DOF_TFA1), m/s
          9   -4.264E-03                                 F               2         ED First time derivative of 1st tower side-to-side bending mode DOF (internal DOF index = DOF_TSS1), m/s
         10    2.327E-06                                 F               2         ED First time derivative of 2nd tower fore-aft bending mode DOF (internal DOF index = DOF_TFA2), m/s
         11    7.923E-07                                 F               2         ED First time derivative of 2nd tower side-to-side bending mode DOF (internal DOF index = DOF_TSS2), m/s
         12    8.942E-01                                 F               2         ED First time derivative of Variable speed generator DOF (internal DOF index = DOF_GeAz), rad/s

Order of continuous state derivatives:
   Row/Column Operating Point                     Rotating Frame? Derivative Order Description
   ---------- ---------------                     --------------- ---------------- -----------
          1    3.440E-06                                 F               2         First time derivative of ED Platform yaw rotation DOF (internal DOF index = DOF_Y), rad/s
          2   -9.527E-05                                 F               2         First time derivative of ED 1st tower fore-aft bending mode DOF (internal DOF index = DOF_TFA1), m/s
          3   -4.264E-03                                 F               2         First time derivative of ED 1st tower side-to-side bending mode DOF (internal DOF index = DOF_TSS1), m/s
          4    2.327E-06                                 F               2         First time derivative of ED 2nd tower fore-aft bending mode DOF (internal DOF index = DOF_TFA2), m/s
          5    7.923E-07                                 F               2         First time derivative of ED 2nd tower side-to-side bending mode DOF (internal DOF index = DOF_TSS2), m/s
          6    8.942E-01                                 F               2         First time derivative of ED Variable speed generator DOF (internal DOF index = DOF_GeAz), rad/s
          7   -8.176E-10                                 F               2         First time derivative of ED First time derivative of Platform yaw rotation DOF (internal DOF index = DOF_Y), rad/s/s
          8    8.208E-04                                 F               2         First time derivative of ED First time derivative of 1st tower fore-aft bending mode DOF (internal DOF index = DOF_TFA1), m/s/s
          9    1.030E-03                                 F               2         First time derivative of ED First time derivative of 1st tower side-to-side bending mode DOF (internal DOF index = DOF_TSS1), m/s/s
         10    1.305E-06                                 F               2         First time derivative of ED First time derivative of 2nd tower fore-aft bending mode DOF (internal DOF index = DOF_TFA2), m/s/s
         11    2.264E-06                                 F               2         First time derivative of ED First time derivative of 2nd tower side-to-side bending mode DOF (internal DOF index = DOF_TSS2), m/s/s
         12   -2.320E-05                                 F               2         First time derivative of ED First time derivative of Variable speed generator DOF (internal DOF index = DOF_GeAz), rad/s/s

Order of inputs:
     Column   Operating Point                     Rotating Frame? Derivative Order Description
   ---------- ---------------                     --------------- ---------------- -----------
          1   -1.080E+01                                 F               0         IfW X-component position of node 1 (hub), m
          2    0.000E+00                                 F               0         IfW Y-component position of node 1 (hub), m
          3    1.497E+02                                 F               0         IfW Z-component position of node 1 (hub), m
          4   -8.143E+00                                 F               0         IfW X-component position of node 2 (blade 1, node 1), m
          5   -2.346E+00                                 F               0         IfW Y-component position of node 2 (blade 1, node 1), m
          6    1.473E+02                                 F               0         IfW Z-component position of node 2 (blade 1, node 1), m
          7   -8.235E+00                                 F               0         IfW X-component position of node 3 (blade 1, node 2), m
          8   -1.155E+00                                 F               0         IfW Y-component position of node 3 (blade 1, node 2), m
          9    1.467E+02                                 F               0         IfW Z-component position of node 3 (blade 1, node 2), m
         10   -9.481E+00                                 F               0         IfW X-component position of node 4 (blade 1, node 3), m
         11    1.504E+01                                 F               0         IfW Y-component position of node 4 (blade 1, node 3), m
         12    1.386E+02                                 F               0         IfW Z-component position of node 4 (blade 1, node 3), m
         13   -9.747E+00                                 F               0         IfW X-component position of node 5 (blade 1, node 4), m
         14    1.849E+01                                 F               0         IfW Y-component position of node 5 (blade 1, node 4), m
         15    1.369E+02                                 F               0         IfW Z-component position of node 5 (blade 1, node 4), m
         16   -1.001E+01                                 F               0         IfW X-component position of node 6 (blade 1, node 5), m
         17    2.194E+01                                 F               0         IfW Y-component position of node 6 (blade 1, node 5), m
         18    1.351E+02                                 F               0         IfW Z-component position of node 6 (blade 1, node 5), m
         19   -1.028E+01                                 F               0         IfW X-component position of node 7 (blade 1, node 6), m
         20    2.539E+01                                 F               0         IfW Y-component position of node 7 (blade 1, node 6), m
         21    1.334E+02                                 F               0         IfW Z-component position of node 7 (blade 1, node 6), m
         22   -1.054E+01                                 F               0         IfW X-component position of node 8 (blade 1, node 7), m
         23    2.884E+01                                 F               0         IfW Y-component position of node 8 (blade 1, node 7), m
         24    1.317E+02                                 F               0         IfW Z-component position of node 8 (blade 1, node 7), m
         25   -1.081E+01                                 F               0         IfW X-component position of node 9 (blade 1, node 8), m
         26    3.229E+01                                 F               0         IfW Y-component position of node 9 (blade 1, node 8), m
         27    1.300E+02                                 F               0         IfW Z-component position of node 9 (blade 1, node 8), m
         28   -1.107E+01                                 F               0         IfW X-component position of node 10 (blade 1, node 9), m
         29    3.574E+01                                 F               0         IfW Y-component position of node 10 (blade 1, node 9), m
         30    1.282E+02                                 F               0         IfW Z-component position of node 10 (blade 1, node 9), m
         31   -1.134E+01                                 F               0         IfW X-component position of node 11 (blade 1, node 10), m
         32    3.919E+01                                 F               0         IfW Y-component position of node 11 (blade 1, node 10), m
         33    1.265E+02                                 F               0         IfW Z-component position of node 11 (blade 1, node 10), m
         34   -1.161E+01                                 F               0         IfW X-component position of node 12 (blade 1, node 11), m
         35    4.264E+01                                 F               0         IfW Y-component position of node 12 (blade 1, node 11), m
         36    1.248E+02                                 F               0         IfW Z-component position of node 12 (blade 1, node 11), m
         37   -1.187E+01                                 F               0         IfW X-component position of node 13 (blade 1, node 12), m
         38    4.609E+01                                 F               0         IfW Y-component position of node 13 (blade 1, node 12), m
         39    1.231E+02                                 F               0         IfW Z-component position of node 13 (blade 1, node 12), m
         40   -1.214E+01                                 F               0         IfW X-component position of node 14 (blade 1, node 13), m
         41    4.955E+01                                 F               0         IfW Y-component position of node 14 (blade 1, node 13), m
         42    1.213E+02                                 F               0         IfW Z-component position of node 14 (blade 1, node 13), m
         43   -1.240E+01                                 F               0         IfW X-component position of node 15 (blade 1, node 14), m
         44    5.300E+01                                 F               0         IfW Y-component position of node 15 (blade 1, node 14), m
         45    1.196E+02                                 F               0         IfW Z-component position of node 15 (blade 1, node 14), m
         46   -1.267E+01                                 F               0         IfW X-component position of node 16 (blade 1, node 15), m
         47    5.645E+01                                 F               0         IfW Y-component position of node 16 (blade 1, node 15), m
         48    1.179E+02                                 F               0         IfW Z-component position of node 16 (blade 1, node 15), m
         49   -1.293E+01                                 F               0         IfW X-component position of node 17 (blade 1, node 16), m
         50    5.990E+01                                 F               0         IfW Y-component position of node 17 (blade 1, node 16), m
         51    1.162E+02                                 F               0         IfW Z-component position of node 17 (blade 1, node 16), m
         52   -1.320E+01                                 F               0         IfW X-component position of node 18 (blade 1, node 17), m
         53    6.335E+01                                 F               0         IfW Y-component position of node 18 (blade 1, node 17), m
         54    1.144E+02                                 F               0         IfW Z-component position of node 18 (blade 1, node 17), m
         55   -1.346E+01                                 F               0         IfW X-component position of node 19 (blade 1, node 18), m
         56    6.680E+01                                 F               0         IfW Y-component position of node 19 (blade 1, node 18), m
         57    1.127E+02                                 F               0         IfW Z-component position of node 19 (blade 1, node 18), m
         58   -1.373E+01                                 F               0         IfW X-component position of node 20 (blade 1, node 19), m
         59    7.025E+01                                 F               0         IfW Y-component position of node 20 (blade 1, node 19), m
         60    1.110E+02                                 F               0         IfW Z-component position of node 20 (blade 1, node 19), m
         61   -1.400E+01                                 F               0         IfW X-component position of node 21 (blade 1, node 20), m
         62    7.370E+01                                 F               0         IfW Y-component position of node 21 (blade 1, node 20), m
         63    1.092E+02                                 F               0         IfW Z-component position of node 21 (blade 1, node 20), m
         64   -1.426E+01                                 F               0         IfW X-component position of node 22 (blade 1, node 21), m
         65    7.715E+01                                 F               0         IfW Y-component position of node 22 (blade 1, node 21), m
         66    1.075E+02                                 F               0         IfW Z-component position of node 22 (blade 1, node 21), m
         67   -1.453E+01                                 F               0         IfW X-component position of node 23 (blade 1, node 22), m
         68    8.060E+01                                 F               0         IfW Y-component position of node 23 (blade 1, node 22), m
         69    1.058E+02                                 F               0         IfW Z-component position of node 23 (blade 1, node 22), m
         70   -1.479E+01                                 F               0         IfW X-component position of node 24 (blade 1, node 23), m
         71    8.405E+01                                 F               0         IfW Y-component position of node 24 (blade 1, node 23), m
         72    1.041E+02                                 F               0         IfW Z-component position of node 24 (blade 1, node 23), m
         73   -1.506E+01                                 F               0         IfW X-component position of node 25 (blade 1, node 24), m
         74    8.750E+01                                 F               0         IfW Y-component position of node 25 (blade 1, node 24), m
         75    1.023E+02                                 F               0         IfW Z-component position of node 25 (blade 1, node 24), m
         76   -1.532E+01                                 F               0         IfW X-component position of node 26 (blade 1, node 25), m
         77    9.095E+01                                 F               0         IfW Y-component position of node 26 (blade 1, node 25), m
         78    1.006E+02                                 F               0         IfW Z-component position of node 26 (blade 1, node 25), m
         79   -1.559E+01                                 F               0         IfW X-component position of node 27 (blade 1, node 26), m
         80    9.440E+01                                 F               0         IfW Y-component position of node 27 (blade 1, node 26), m
         81    9.888E+01                                 F               0         IfW Z-component position of node 27 (blade 1, node 26), m
         82   -1.585E+01                                 F               0         IfW X-component position of node 28 (blade 1, node 27), m
         83    9.785E+01                                 F               0         IfW Y-component position of node 28 (blade 1, node 27), m
         84    9.716E+01                                 F               0         IfW Z-component position of node 28 (blade 1, node 27), m
         85   -1.608E+01                                 F               0         IfW X-component position of node 29 (blade 1, node 28), m
         86    1.008E+02                                 F               0         IfW Y-component position of node 29 (blade 1, node 28), m
         87    9.569E+01                                 F               0         IfW Z-component position of node 29 (blade 1, node 28), m
         88   -7.056E+00                                 F               0         IfW X-component position of node 30 (blade 2, node 1), m
         89   -7.593E+00                                 F               0         IfW Y-component position of node 30 (blade 2, node 1), m
         90    1.553E+02                                 F               0         IfW Z-component position of node 30 (blade 2, node 1), m
         91   -6.886E+00                                 F               0         IfW X-component position of node 31 (blade 2, node 2), m
         92   -7.666E+00                                 F               0         IfW Y-component position of node 31 (blade 2, node 2), m
         93    1.566E+02                                 F               0         IfW Z-component position of node 31 (blade 2, node 2), m
         94   -4.571E+00                                 F               0         IfW X-component position of node 32 (blade 2, node 3), m
         95   -8.665E+00                                 F               0         IfW Y-component position of node 32 (blade 2, node 3), m
         96    1.746E+02                                 F               0         IfW Z-component position of node 32 (blade 2, node 3), m
         97   -4.078E+00                                 F               0         IfW X-component position of node 33 (blade 2, node 4), m
         98   -8.878E+00                                 F               0         IfW Y-component position of node 33 (blade 2, node 4), m
         99    1.784E+02                                 F               0         IfW Z-component position of node 33 (blade 2, node 4), m
        100   -3.585E+00                                 F               0         IfW X-component position of node 34 (blade 2, node 5), m
        101   -9.091E+00                                 F               0         IfW Y-component position of node 34 (blade 2, node 5), m
        102    1.822E+02                                 F               0         IfW Z-component position of node 34 (blade 2, node 5), m
        103   -3.092E+00                                 F               0         IfW X-component position of node 35 (blade 2, node 6), m
        104   -9.303E+00                                 F               0         IfW Y-component position of node 35 (blade 2, node 6), m
        105    1.861E+02                                 F               0         IfW Z-component position of node 35 (blade 2, node 6), m
        106   -2.599E+00                                 F               0         IfW X-component position of node 36 (blade 2, node 7), m
        107   -9.516E+00                                 F               0         IfW Y-component position of node 36 (blade 2, node 7), m
        108    1.899E+02                                 F               0         IfW Z-component position of node 36 (blade 2, node 7), m
        109   -2.105E+00                                 F               0         IfW X-component position of node 37 (blade 2, node 8), m
        110   -9.729E+00                                 F               0         IfW Y-component position of node 37 (blade 2, node 8), m
        111    1.937E+02                                 F               0         IfW Z-component position of node 37 (blade 2, node 8), m
        112   -1.612E+00                                 F               0         IfW X-component position of node 38 (blade 2, node 9), m
        113   -9.942E+00                                 F               0         IfW Y-component position of node 38 (blade 2, node 9), m
        114    1.975E+02                                 F               0         IfW Z-component position of node 38 (blade 2, node 9), m
        115   -1.119E+00                                 F               0         IfW X-component position of node 39 (blade 2, node 10), m
        116   -1.015E+01                                 F               0         IfW Y-component position of node 39 (blade 2, node 10), m
        117    2.014E+02                                 F               0         IfW Z-component position of node 39 (blade 2, node 10), m
        118   -6.259E-01                                 F               0         IfW X-component position of node 40 (blade 2, node 11), m
        119   -1.037E+01                                 F               0         IfW Y-component position of node 40 (blade 2, node 11), m
        120    2.052E+02                                 F               0         IfW Z-component position of node 40 (blade 2, node 11), m
        121   -1.326E-01                                 F               0         IfW X-component position of node 41 (blade 2, node 12), m
        122   -1.058E+01                                 F               0         IfW Y-component position of node 41 (blade 2, node 12), m
        123    2.090E+02                                 F               0         IfW Z-component position of node 41 (blade 2, node 12), m
        124    3.606E-01                                 F               0         IfW X-component position of node 42 (blade 2, node 13), m
        125   -1.079E+01                                 F               0         IfW Y-component position of node 42 (blade 2, node 13), m
        126    2.129E+02                                 F               0         IfW Z-component position of node 42 (blade 2, node 13), m
        127    8.537E-01                                 F               0         IfW X-component position of node 43 (blade 2, node 14), m
        128   -1.101E+01                                 F               0         IfW Y-component position of node 43 (blade 2, node 14), m
        129    2.167E+02                                 F               0         IfW Z-component position of node 43 (blade 2, node 14), m
        130    1.347E+00                                 F               0         IfW X-component position of node 44 (blade 2, node 15), m
        131   -1.122E+01                                 F               0         IfW Y-component position of node 44 (blade 2, node 15), m
        132    2.205E+02                                 F               0         IfW Z-component position of node 44 (blade 2, node 15), m
        133    1.840E+00                                 F               0         IfW X-component position of node 45 (blade 2, node 16), m
        134   -1.143E+01                                 F               0         IfW Y-component position of node 45 (blade 2, node 16), m
        135    2.244E+02                                 F               0         IfW Z-component position of node 45 (blade 2, node 16), m
        136    2.333E+00                                 F               0         IfW X-component position of node 46 (blade 2, node 17), m
        137   -1.164E+01                                 F               0         IfW Y-component position of node 46 (blade 2, node 17), m
        138    2.282E+02                                 F               0         IfW Z-component position of node 46 (blade 2, node 17), m
        139    2.827E+00                                 F               0         IfW X-component position of node 47 (blade 2, node 18), m
        140   -1.186E+01                                 F               0         IfW Y-component position of node 47 (blade 2, node 18), m
        141    2.320E+02                                 F               0         IfW Z-component position of node 47 (blade 2, node 18), m
        142    3.320E+00                                 F               0         IfW X-component position of node 48 (blade 2, node 19), m
        143   -1.207E+01                                 F               0         IfW Y-component position of node 48 (blade 2, node 19), m
        144    2.358E+02                                 F               0         IfW Z-component position of node 48 (blade 2, node 19), m
        145    3.813E+00                                 F               0         IfW X-component position of node 49 (blade 2, node 20), m
        146   -1.228E+01                                 F               0         IfW Y-component position of node 49 (blade 2, node 20), m
        147    2.397E+02                                 F               0         IfW Z-component position of node 49 (blade 2, node 20), m
        148    4.306E+00                                 F               0         IfW X-component position of node 50 (blade 2, node 21), m
        149   -1.249E+01                                 F               0         IfW Y-component position of node 50 (blade 2, node 21), m
        150    2.435E+02                                 F               0         IfW Z-component position of node 50 (blade 2, node 21), m
        151    4.799E+00                                 F               0         IfW X-component position of node 51 (blade 2, node 22), m
        152   -1.271E+01                                 F               0         IfW Y-component position of node 51 (blade 2, node 22), m
        153    2.473E+02                                 F               0         IfW Z-component position of node 51 (blade 2, node 22), m
        154    5.293E+00                                 F               0         IfW X-component position of node 52 (blade 2, node 23), m
        155   -1.292E+01                                 F               0         IfW Y-component position of node 52 (blade 2, node 23), m
        156    2.512E+02                                 F               0         IfW Z-component position of node 52 (blade 2, node 23), m
        157    5.786E+00                                 F               0         IfW X-component position of node 53 (blade 2, node 24), m
        158   -1.313E+01                                 F               0         IfW Y-component position of node 53 (blade 2, node 24), m
        159    2.550E+02                                 F               0         IfW Z-component position of node 53 (blade 2, node 24), m
        160    6.279E+00                                 F               0         IfW X-component position of node 54 (blade 2, node 25), m
        161   -1.335E+01                                 F               0         IfW Y-component position of node 54 (blade 2, node 25), m
        162    2.588E+02                                 F               0         IfW Z-component position of node 54 (blade 2, node 25), m
        163    6.772E+00                                 F               0         IfW X-component position of node 55 (blade 2, node 26), m
        164   -1.356E+01                                 F               0         IfW Y-component position of node 55 (blade 2, node 26), m
        165    2.627E+02                                 F               0         IfW Z-component position of node 55 (blade 2, node 26), m
        166    7.265E+00                                 F               0         IfW X-component position of node 56 (blade 2, node 27), m
        167   -1.377E+01                                 F               0         IfW Y-component position of node 56 (blade 2, node 27), m
        168    2.665E+02                                 F               0         IfW Z-component position of node 56 (blade 2, node 27), m
        169    7.683E+00                                 F               0         IfW X-component position of node 57 (blade 2, node 28), m
        170   -1.395E+01                                 F               0         IfW Y-component position of node 57 (blade 2, node 28), m