
Linearized model: Predictions were generated on 24-Jan-2024 at 11:24:37 using OpenFAST, compiled as a 64-bit application using single precision at commit v3.5.1
 linked with  NWTC Subroutine Library; ElastoDyn; InflowWind; AeroDyn; ServoDyn; HydroDyn; MAP++ (<1.20.10>, <Oct-20-2023>)

Description from the FAST input file: CCT-9 Campign 4 model. Input files to be run with OpenFAST 3.5.0. GitHub branch from Lu Wang (https://github.com/luwang00/openfast/tree/dev) compiled on March 7, 2023.

Simulation information:
   Simulation time:                   507.6750 s
   Rotor Speed:                         0.8938 rad/s
   Azimuth:                             2.1177 rad
   Wind Speed:                         10.0000 m/s
   Number of continuous states:         0
   Number of discrete states:           0
   Number of constraint states:         0
   Number of inputs:                  303
   Number of outputs:                   1
   Jacobians included in this file?    No

Order of inputs:
     Column   Operating Point                     Rotating Frame? Derivative Order Description
   ---------- ---------------                     --------------- ---------------- -----------
          1   -1.080E+01                                 F               0         X-component position of node 1 (hub), m
          2    0.000E+00                                 F               0         Y-component position of node 1 (hub), m
          3    1.497E+02                                 F               0         Z-component position of node 1 (hub), m
          4   -8.095E+00                                 F               0         X-component position of node 2 (blade 1, node 1), m
          5   -1.189E+01                                 F               0         Y-component position of node 2 (blade 1, node 1), m
          6    1.467E+02                                 F               0         Z-component position of node 2 (blade 1, node 1), m
          7   -8.175E+00                                 F               0         X-component position of node 3 (blade 1, node 2), m
          8   -1.300E+01                                 F               0         Y-component position of node 3 (blade 1, node 2), m
          9    1.460E+02                                 F               0         Z-component position of node 3 (blade 1, node 2), m
         10   -9.269E+00                                 F               0         X-component position of node 4 (blade 1, node 3), m
         11   -2.807E+01                                 F               0         Y-component position of node 4 (blade 1, node 3), m
         12    1.359E+02                                 F               0         Z-component position of node 4 (blade 1, node 3), m
         13   -9.502E+00                                 F               0         X-component position of node 5 (blade 1, node 4), m
         14   -3.128E+01                                 F               0         Y-component position of node 5 (blade 1, node 4), m
         15    1.338E+02                                 F               0         Z-component position of node 5 (blade 1, node 4), m
         16   -9.735E+00                                 F               0         X-component position of node 6 (blade 1, node 5), m
         17   -3.450E+01                                 F               0         Y-component position of node 6 (blade 1, node 5), m
         18    1.316E+02                                 F               0         Z-component position of node 6 (blade 1, node 5), m
         19   -9.968E+00                                 F               0         X-component position of node 7 (blade 1, node 6), m
         20   -3.771E+01                                 F               0         Y-component position of node 7 (blade 1, node 6), m
         21    1.295E+02                                 F               0         Z-component position of node 7 (blade 1, node 6), m
         22   -1.020E+01                                 F               0         X-component position of node 8 (blade 1, node 7), m
         23   -4.092E+01                                 F               0         Y-component position of node 8 (blade 1, node 7), m
         24    1.273E+02                                 F               0         Z-component position of node 8 (blade 1, node 7), m
         25   -1.043E+01                                 F               0         X-component position of node 9 (blade 1, node 8), m
         26   -4.413E+01                                 F               0         Y-component position of node 9 (blade 1, node 8), m
         27    1.252E+02                                 F               0         Z-component position of node 9 (blade 1, node 8), m
         28   -1.067E+01                                 F               0         X-component position of node 10 (blade 1, node 9), m
         29   -4.734E+01                                 F               0         Y-component position of node 10 (blade 1, node 9), m
         30    1.231E+02                                 F               0         Z-component position of node 10 (blade 1, node 9), m
         31   -1.090E+01                                 F               0         X-component position of node 11 (blade 1, node 10), m
         32   -5.055E+01                                 F               0         Y-component position of node 11 (blade 1, node 10), m
         33    1.209E+02                                 F               0         Z-component position of node 11 (blade 1, node 10), m
         34   -1.113E+01                                 F               0         X-component position of node 12 (blade 1, node 11), m
         35   -5.376E+01                                 F               0         Y-component position of node 12 (blade 1, node 11), m
         36    1.188E+02                                 F               0         Z-component position of node 12 (blade 1, node 11), m
         37   -1.137E+01                                 F               0         X-component position of node 13 (blade 1, node 12), m
         38   -5.698E+01                                 F               0         Y-component position of node 13 (blade 1, node 12), m
         39    1.166E+02                                 F               0         Z-component position of node 13 (blade 1, node 12), m
         40   -1.160E+01                                 F               0         X-component position of node 14 (blade 1, node 13), m
         41   -6.019E+01                                 F               0         Y-component position of node 14 (blade 1, node 13), m
         42    1.145E+02                                 F               0         Z-component position of node 14 (blade 1, node 13), m
         43   -1.183E+01                                 F               0         X-component position of node 15 (blade 1, node 14), m
         44   -6.340E+01                                 F               0         Y-component position of node 15 (blade 1, node 14), m
         45    1.123E+02                                 F               0         Z-component position of node 15 (blade 1, node 14), m
         46   -1.207E+01                                 F               0         X-component position of node 16 (blade 1, node 15), m
         47   -6.661E+01                                 F               0         Y-component position of node 16 (blade 1, node 15), m
         48    1.102E+02                                 F               0         Z-component position of node 16 (blade 1, node 15), m
         49   -1.230E+01                                 F               0         X-component position of node 17 (blade 1, node 16), m
         50   -6.982E+01                                 F               0         Y-component position of node 17 (blade 1, node 16), m
         51    1.081E+02                                 F               0         Z-component position of node 17 (blade 1, node 16), m
         52   -1.253E+01                                 F               0         X-component position of node 18 (blade 1, node 17), m
         53   -7.303E+01                                 F               0         Y-component position of node 18 (blade 1, node 17), m
         54    1.059E+02                                 F               0         Z-component position of node 18 (blade 1, node 17), m
         55   -1.277E+01                                 F               0         X-component position of node 19 (blade 1, node 18), m
         56   -7.624E+01                                 F               0         Y-component position of node 19 (blade 1, node 18), m
         57    1.038E+02                                 F               0         Z-component position of node 19 (blade 1, node 18), m
         58   -1.300E+01                                 F               0         X-component position of node 20 (blade 1, node 19), m
         59   -7.946E+01                                 F               0         Y-component position of node 20 (blade 1, node 19), m
         60    1.016E+02                                 F               0         Z-component position of node 20 (blade 1, node 19), m
         61   -1.323E+01                                 F               0         X-component position of node 21 (blade 1, node 20), m
         62   -8.267E+01                                 F               0         Y-component position of node 21 (blade 1, node 20), m
         63    9.948E+01                                 F               0         Z-component position of node 21 (blade 1, node 20), m
         64   -1.346E+01                                 F               0         X-component position of node 22 (blade 1, node 21), m
         65   -8.588E+01                                 F               0         Y-component position of node 22 (blade 1, node 21), m
         66    9.734E+01                                 F               0         Z-component position of node 22 (blade 1, node 21), m
         67   -1.370E+01                                 F               0         X-component position of node 23 (blade 1, node 22), m
         68   -8.909E+01                                 F               0         Y-component position of node 23 (blade 1, node 22), m
         69    9.520E+01                                 F               0         Z-component position of node 23 (blade 1, node 22), m
         70   -1.393E+01                                 F               0         X-component position of node 24 (blade 1, node 23), m
         71   -9.230E+01                                 F               0         Y-component position of node 24 (blade 1, node 23), m
         72    9.306E+01                                 F               0         Z-component position of node 24 (blade 1, node 23), m
         73   -1.416E+01                                 F               0         X-component position of node 25 (blade 1, node 24), m
         74   -9.551E+01                                 F               0         Y-component position of node 25 (blade 1, node 24), m
         75    9.091E+01                                 F               0         Z-component position of node 25 (blade 1, node 24), m
         76   -1.440E+01                                 F               0         X-component position of node 26 (blade 1, node 25), m
         77   -9.873E+01                                 F               0         Y-component position of node 26 (blade 1, node 25), m
         78    8.877E+01                                 F               0         Z-component position of node 26 (blade 1, node 25), m
         79   -1.463E+01                                 F               0         X-component position of node 27 (blade 1, node 26), m
         80   -1.019E+02                                 F               0         Y-component position of node 27 (blade 1, node 26), m
         81    8.663E+01                                 F               0         Z-component position of node 27 (blade 1, node 26), m
         82   -1.486E+01                                 F               0         X-component position of node 28 (blade 1, node 27), m
         83   -1.051E+02                                 F               0         Y-component position of node 28 (blade 1, node 27), m
         84    8.449E+01                                 F               0         Z-component position of node 28 (blade 1, node 27), m
         85   -1.506E+01                                 F               0         X-component position of node 29 (blade 1, node 28), m
         86   -1.079E+02                                 F               0         Y-component position of node 29 (blade 1, node 28), m
         87    8.267E+01                                 F               0         Z-component position of node 29 (blade 1, node 28), m
         88   -8.134E+00                                 F               0         X-component position of node 30 (blade 2, node 1), m
         89   -2.319E+00                                 F               0         Y-component position of node 30 (blade 2, node 1), m
         90    1.474E+02                                 F               0         Z-component position of node 30 (blade 2, node 1), m
         91   -8.224E+00                                 F               0         X-component position of node 31 (blade 2, node 2), m
         92   -1.121E+00                                 F               0         Y-component position of node 31 (blade 2, node 2), m
         93    1.468E+02                                 F               0         Z-component position of node 31 (blade 2, node 2), m
         94   -9.446E+00                                 F               0         X-component position of node 32 (blade 2, node 3), m
         95    1.517E+01                                 F               0         Y-component position of node 32 (blade 2, node 3), m
         96    1.389E+02                                 F               0         Z-component position of node 32 (blade 2, node 3), m
         97   -9.707E+00                                 F               0         X-component position of node 33 (blade 2, node 4), m
         98    1.865E+01                                 F               0         Y-component position of node 33 (blade 2, node 4), m
         99    1.372E+02                                 F               0         Z-component position of node 33 (blade 2, node 4), m
        100   -9.967E+00                                 F               0         X-component position of node 34 (blade 2, node 5), m
        101    2.212E+01                                 F               0         Y-component position of node 34 (blade 2, node 5), m
        102    1.355E+02                                 F               0         Z-component position of node 34 (blade 2, node 5), m
        103   -1.023E+01                                 F               0         X-component position of node 35 (blade 2, node 6), m
        104    2.559E+01                                 F               0         Y-component position of node 35 (blade 2, node 6), m
        105    1.338E+02                                 F               0         Z-component position of node 35 (blade 2, node 6), m
        106   -1.049E+01                                 F               0         X-component position of node 36 (blade 2, node 7), m
        107    2.906E+01                                 F               0         Y-component position of node 36 (blade 2, node 7), m
        108    1.321E+02                                 F               0         Z-component position of node 36 (blade 2, node 7), m
        109   -1.075E+01                                 F               0         X-component position of node 37 (blade 2, node 8), m
        110    3.253E+01                                 F               0         Y-component position of node 37 (blade 2, node 8), m
        111    1.305E+02                                 F               0         Z-component position of node 37 (blade 2, node 8), m
        112   -1.101E+01                                 F               0         X-component position of node 38 (blade 2, node 9), m
        113    3.601E+01                                 F               0         Y-component position of node 38 (blade 2, node 9), m
        114    1.288E+02                                 F               0         Z-component position of node 38 (blade 2, node 9), m
        115   -1.127E+01                                 F               0         X-component position of node 39 (blade 2, node 10), m
        116    3.948E+01                                 F               0         Y-component position of node 39 (blade 2, node 10), m
        117    1.271E+02                                 F               0         Z-component position of node 39 (blade 2, node 10), m
        118   -1.153E+01                                 F               0         X-component position of node 40 (blade 2, node 11), m
        119    4.295E+01                                 F               0         Y-component position of node 40 (blade 2, node 11), m
        120    1.254E+02                                 F               0         Z-component position of node 40 (blade 2, node 11), m
        121   -1.179E+01                                 F               0         X-component position of node 41 (blade 2, node 12), m
        122    4.642E+01                                 F               0         Y-component position of node 41 (blade 2, node 12), m
        123    1.237E+02                                 F               0         Z-component position of node 41 (blade 2, node 12), m
        124   -1.205E+01                                 F               0         X-component position of node 42 (blade 2, node 13), m
        125    4.989E+01                                 F               0         Y-component position of node 42 (blade 2, node 13), m
        126    1.220E+02                                 F               0         Z-component position of node 42 (blade 2, node 13), m
        127   -1.231E+01                                 F               0         X-component position of node 43 (blade 2, node 14), m
        128    5.336E+01                                 F               0         Y-component position of node 43 (blade 2, node 14), m
        129    1.203E+02                                 F               0         Z-component position of node 43 (blade 2, node 14), m
        130   -1.257E+01                                 F               0         X-component position of node 44 (blade 2, node 15), m
        131    5.684E+01                                 F               0         Y-component position of node 44 (blade 2, node 15), m
        132    1.187E+02                                 F               0         Z-component position of node 44 (blade 2, node 15), m
        133   -1.283E+01                                 F               0         X-component position of node 45 (blade 2, node 16), m
        134    6.031E+01                                 F               0         Y-component position of node 45 (blade 2, node 16), m
        135    1.170E+02                                 F               0         Z-component position of node 45 (blade 2, node 16), m
        136   -1.309E+01                                 F               0         X-component position of node 46 (blade 2, node 17), m
        137    6.378E+01                                 F               0         Y-component position of node 46 (blade 2, node 17), m
        138    1.153E+02                                 F               0         Z-component position of node 46 (blade 2, node 17), m
        139   -1.335E+01                                 F               0         X-component position of node 47 (blade 2, node 18), m
        140    6.725E+01                                 F               0         Y-component position of node 47 (blade 2, node 18), m
        141    1.136E+02                                 F               0         Z-component position of node 47 (blade 2, node 18), m
        142   -1.361E+01                                 F               0         X-component position of node 48 (blade 2, node 19), m
        143    7.072E+01                                 F               0         Y-component position of node 48 (blade 2, node 19), m
        144    1.119E+02                                 F               0         Z-component position of node 48 (blade 2, node 19), m
        145   -1.387E+01                                 F               0         X-component position of node 49 (blade 2, node 20), m
        146    7.420E+01                                 F               0         Y-component position of node 49 (blade 2, node 20), m
        147    1.102E+02                                 F               0         Z-component position of node 49 (blade 2, node 20), m
        148   -1.413E+01                                 F               0         X-component position of node 50 (blade 2, node 21), m
        149    7.767E+01                                 F               0         Y-component position of node 50 (blade 2, node 21), m
        150    1.086E+02                                 F               0         Z-component position of node 50 (blade 2, node 21), m
        151   -1.439E+01                                 F               0         X-component position of node 51 (blade 2, node 22), m
        152    8.114E+01                                 F               0         Y-component position of node 51 (blade 2, node 22), m
        153    1.069E+02                                 F               0         Z-component position of node 51 (blade 2, node 22), m
        154   -1.466E+01                                 F               0         X-component position of node 52 (blade 2, node 23), m
        155    8.461E+01                                 F               0         Y-component position of node 52 (blade 2, node 23), m
        156    1.052E+02                                 F               0         Z-component position of node 52 (blade 2, node 23), m
        157   -1.492E+01                                 F               0         X-component position of node 53 (blade 2, node 24), m
        158    8.808E+01                                 F               0         Y-component position of node 53 (blade 2, node 24), m
        159    1.035E+02                                 F               0         Z-component position of node 53 (blade 2, node 24), m
        160   -1.518E+01                                 F               0         X-component position of node 54 (blade 2, node 25), m
        161    9.155E+01                                 F               0         Y-component position of node 54 (blade 2, node 25), m
        162    1.018E+02                                 F               0         Z-component position of node 54 (blade 2, node 25), m
        163   -1.544E+01                                 F               0         X-component position of node 55 (blade 2, node 26), m
        164    9.503E+01                                 F               0         Y-component position of node 55 (blade 2, node 26), m
        165    1.001E+02                                 F               0         Z-component position of node 55 (blade 2, node 26), m
        166   -1.570E+01                                 F               0         X-component position of node 56 (blade 2, node 27), m
        167    9.850E+01                                 F               0         Y-component position of node 56 (blade 2, node 27), m
        168    9.845E+01                                 F               0         Z-component position of node 56 (blade 2, node 27), m
        169   -1.592E+01                                 F               0         X-component position of node 57 (blade 2, node 28), m
        170    1.014E+02                                 F               0         Y-component position of node 57 (blade 2, node 28), m
        171    9.702E+01                                 F               0         Z-component position of node 57 (blade 2, node 28), m
        172   -7.054E+00                                 F               0         X-component position of node 58 (blade 3, node 1), m
        173   -7.665E+00                                 F               0         Y-component position of node 58 (blade 3, node 1), m
        174    1.553E+02                                 F               0         Z-component position of node 58 (blade 3, node 1), m
        175   -6.884E+00                                 F               0         X-component position of node 59 (blade 3, node 2), m
        176   -7.755E+00                                 F               0         Y-component position of node 59 (blade 3, node 2), m
        177    1.566E+02                                 F               0         Z-component position of node 59 (blade 3, node 2), m
        178   -4.568E+00                                 F               0         X-component position of node 60 (blade 3, node 3), m
        179   -8.976E+00                                 F               0         Y-component position of node 60 (blade 3, node 3), m
        180    1.745E+02                                 F               0         Z-component position of node 60 (blade 3, node 3), m
        181   -4.074E+00                                 F               0         X-component position of node 61 (blade 3, node 4), m
        182   -9.237E+00                                 F               0         Y-component position of node 61 (blade 3, node 4), m
        183    1.784E+02                                 F               0         Z-component position of node 61 (blade 3, node 4), m
        184   -3.580E+00                                 F               0         X-component position of node 62 (blade 3, node 5), m
        185   -9.497E+00                                 F               0         Y-component position of node 62 (blade 3, node 5), m
        186    1.822E+02                                 F               0         Z-component position of node 62 (blade 3, node 5), m
        187   -3.087E+00                                 F               0         X-component position of node 63 (blade 3, node 6), m
        188   -9.758E+00                                 F               0         Y-component position of node 63 (blade 3, node 6), m
        189    1.860E+02                                 F               0         Z-component position of node 63 (blade 3, node 6), m
        190   -2.594E+00                                 F               0         X-component position of node 64 (blade 3, node 7), m
        191   -1.002E+01                                 F               0         Y-component position of node 64 (blade 3, node 7), m
        192    1.899E+02                                 F               0         Z-component position of node 64 (blade 3, node 7), m
        193   -2.100E+00                                 F               0         X-component position of node 65 (blade 3, node 8), m
        194   -1.028E+01                                 F               0         Y-component position of node 65 (blade 3, node 8), m
        195    1.937E+02                                 F               0         Z-component position of node 65 (blade 3, node 8), m
        196   -1.606E+00                                 F               0         X-component position of node 66 (blade 3, node 9), m
        197   -1.054E+01                                 F               0         Y-component position of node 66 (blade 3, node 9), m
        198    1.975E+02                                 F               0         Z-component position of node 66 (blade 3, node 9), m
        199   -1.113E+00                                 F               0         X-component position of node 67 (blade 3, node 10), m
        200   -1.080E+01                                 F               0         Y-component position of node 67 (blade 3, node 10), m
        201    2.013E+02                                 F               0         Z-component position of node 67 (blade 3, node 10), m
        202   -6.195E-01                                 F               0         X-component position of node 68 (blade 3, node 11), m
        203   -1.106E+01                                 F               0         Y-component position of node 68 (blade 3, node 11), m
        204    2.052E+02                                 F               0         Z-component position of node 68 (blade 3, node 11), m
        205   -1.259E-01                                 F               0         X-component position of node 69 (blade 3, node 12), m
        206   -1.132E+01                                 F               0         Y-component position of node 69 (blade 3, node 12), m
        207    2.090E+02                                 F               0         Z-component position of node 69 (blade 3, node 12), m
        208    3.676E-01                                 F               0         X-component position of node 70 (blade 3, node 13), m
        209   -1.158E+01                                 F               0         Y-component position of node 70 (blade 3, node 13), m
        210    2.128E+02                                 F               0         Z-component position of node 70 (blade 3, node 13), m
        211    8.611E-01                                 F               0         X-component position of node 71 (blade 3, node 14), m