
Linearized model: Predictions were generated on 24-Jan-2024 at 11:24:37 using OpenFAST, compiled as a 64-bit application using single precision at commit v3.5.1
 linked with  NWTC Subroutine Library; ElastoDyn; InflowWind; AeroDyn; ServoDyn; HydroDyn; MAP++ (<1.20.10>, <Oct-20-2023>)

Description from the FAST input file: CCT-9 Campign 4 model. Input files to be run with OpenFAST 3.5.0. GitHub branch from Lu Wang (https://github.com/luwang00/openfast/tree/dev) compiled on March 7, 2023.

Simulation information:
   Simulation time:                   508.6500 s
   Rotor Speed:                         0.8940 rad/s
   Azimuth:                             2.9892 rad
   Wind Speed:                         10.0000 m/s
   Number of continuous states:         0
   Number of discrete states:           0
   Number of constraint states:         0
   Number of inputs:                 1746
   Number of outputs:                   4
   Jacobians included in this file?    No

Order of inputs:
     Column   Operating Point                     Rotating Frame? Derivative Order Description
   ---------- ---------------                     --------------- ---------------- -----------
          1    1.535E-01                                 F               0         Tower X translation displacement, node 1, m
          2   -1.355E+00                                 F               0         Tower Y translation displacement, node 1, m
          3   -4.807E-02                                 F               0         Tower Z translation displacement, node 1, m
          4    3.902E-01                                 F               0         Tower X translation displacement, node 2, m
          5   -1.889E+00                                 F               0         Tower Y translation displacement, node 2, m
          6   -6.192E-02                                 F               0         Tower Z translation displacement, node 2, m
          7    6.403E-01                                 F               0         Tower X translation displacement, node 3, m
          8   -2.429E+00                                 F               0         Tower Y translation displacement, node 3, m
          9   -7.625E-02                                 F               0         Tower Z translation displacement, node 3, m
         10    9.002E-01                                 F               0         Tower X translation displacement, node 4, m
         11   -2.973E+00                                 F               0         Tower Y translation displacement, node 4, m
         12   -9.097E-02                                 F               0         Tower Z translation displacement, node 4, m
         13    1.168E+00                                 F               0         Tower X translation displacement, node 5, m
         14   -3.521E+00                                 F               0         Tower Y translation displacement, node 5, m
         15   -1.060E-01                                 F               0         Tower Z translation displacement, node 5, m
         16    1.442E+00                                 F               0         Tower X translation displacement, node 6, m
         17   -4.071E+00                                 F               0         Tower Y translation displacement, node 6, m
         18   -1.213E-01                                 F               0         Tower Z translation displacement, node 6, m
         19    1.720E+00                                 F               0         Tower X translation displacement, node 7, m
         20   -4.624E+00                                 F               0         Tower Y translation displacement, node 7, m
         21   -1.368E-01                                 F               0         Tower Z translation displacement, node 7, m
         22    2.001E+00                                 F               0         Tower X translation displacement, node 8, m
         23   -5.179E+00                                 F               0         Tower Y translation displacement, node 8, m
         24   -1.525E-01                                 F               0         Tower Z translation displacement, node 8, m
         25    2.284E+00                                 F               0         Tower X translation displacement, node 9, m
         26   -5.735E+00                                 F               0         Tower Y translation displacement, node 9, m
         27   -1.683E-01                                 F               0         Tower Z translation displacement, node 9, m
         28    2.569E+00                                 F               0         Tower X translation displacement, node 10, m
         29   -6.293E+00                                 F               0         Tower Y translation displacement, node 10, m
         30   -1.842E-01                                 F               0         Tower Z translation displacement, node 10, m
         31    2.854E+00                                 F               0         Tower X translation displacement, node 11, m
         32   -6.851E+00                                 F               0         Tower Y translation displacement, node 11, m
         33   -2.001E-01                                 F               0         Tower Z translation displacement, node 11, m
         34    9.998E-01,  7.899E-03, -1.840E-02         F               0         Tower X orientation angle, node 1, rad
         35   -7.097E-03,  9.990E-01,  4.325E-02         F               0         Tower Y orientation angle, node 1, rad
         36    1.873E-02, -4.311E-02,  9.989E-01         F               0         Tower Z orientation angle, node 1, rad
         37    9.998E-01,  7.943E-03, -1.942E-02         F               0         Tower X orientation angle, node 2, rad
         38   -7.089E-03,  9.990E-01,  4.365E-02         F               0         Tower Y orientation angle, node 2, rad
         39    1.975E-02, -4.351E-02,  9.989E-01         F               0         Tower Z orientation angle, node 2, rad
         40    9.998E-01,  7.982E-03, -2.029E-02         F               0         Tower X orientation angle, node 3, rad
         41   -7.082E-03,  9.990E-01,  4.401E-02         F               0         Tower Y orientation angle, node 3, rad
         42    2.062E-02, -4.386E-02,  9.988E-01         F               0         Tower Z orientation angle, node 3, rad
         43    9.997E-01,  8.013E-03, -2.101E-02         F               0         Tower X orientation angle, node 4, rad
         44   -7.076E-03,  9.990E-01,  4.433E-02         F               0         Tower Y orientation angle, node 4, rad
         45    2.134E-02, -4.417E-02,  9.988E-01         F               0         Tower Z orientation angle, node 4, rad
         46    9.997E-01,  8.038E-03, -2.158E-02         F               0         Tower X orientation angle, node 5, rad
         47   -7.070E-03,  9.990E-01,  4.460E-02         F               0         Tower Y orientation angle, node 5, rad
         48    2.191E-02, -4.444E-02,  9.988E-01         F               0         Tower Z orientation angle, node 5, rad
         49    9.997E-01,  8.058E-03, -2.201E-02         F               0         Tower X orientation angle, node 6, rad
         50   -7.065E-03,  9.990E-01,  4.483E-02         F               0         Tower Y orientation angle, node 6, rad
         51    2.235E-02, -4.466E-02,  9.988E-01         F               0         Tower Z orientation angle, node 6, rad
         52    9.997E-01,  8.071E-03, -2.231E-02         F               0         Tower X orientation angle, node 7, rad
         53   -7.061E-03,  9.990E-01,  4.501E-02         F               0         Tower Y orientation angle, node 7, rad
         54    2.265E-02, -4.484E-02,  9.987E-01         F               0         Tower Z orientation angle, node 7, rad
         55    9.997E-01,  8.081E-03, -2.252E-02         F               0         Tower X orientation angle, node 8, rad
         56   -7.058E-03,  9.990E-01,  4.515E-02         F               0         Tower Y orientation angle, node 8, rad
         57    2.286E-02, -4.498E-02,  9.987E-01         F               0         Tower Z orientation angle, node 8, rad
         58    9.997E-01,  8.087E-03, -2.265E-02         F               0         Tower X orientation angle, node 9, rad
         59   -7.055E-03,  9.990E-01,  4.525E-02         F               0         Tower Y orientation angle, node 9, rad
         60    2.299E-02, -4.508E-02,  9.987E-01         F               0         Tower Z orientation angle, node 9, rad
         61    9.997E-01,  8.090E-03, -2.272E-02         F               0         Tower X orientation angle, node 10, rad
         62   -7.054E-03,  9.989E-01,  4.532E-02         F               0         Tower Y orientation angle, node 10, rad
         63    2.306E-02, -4.515E-02,  9.987E-01         F               0         Tower Z orientation angle, node 10, rad
         64    9.997E-01,  8.091E-03, -2.274E-02         F               0         Tower X orientation angle, node 11, rad
         65   -7.053E-03,  9.989E-01,  4.536E-02         F               0         Tower Y orientation angle, node 11, rad
         66    2.309E-02, -4.519E-02,  9.987E-01         F               0         Tower Z orientation angle, node 11, rad
         67    1.893E-06                                 F               0         Tower X translation velocity, node 1, m/s
         68    8.225E-07                                 F               0         Tower Y translation velocity, node 1, m/s
         69    0.000E+00                                 F               0         Tower Z translation velocity, node 1, m/s
         70   -7.157E-06                                 F               0         Tower X translation velocity, node 2, m/s
         71    4.139E-06                                 F               0         Tower Y translation velocity, node 2, m/s
         72    3.206E-07                                 F               0         Tower Z translation velocity, node 2, m/s
         73   -4.350E-05                                 F               0         Tower X translation velocity, node 3, m/s
         74    1.477E-05                                 F               0         Tower Y translation velocity, node 3, m/s
         75    1.522E-06                                 F               0         Tower Z translation velocity, node 3, m/s
         76   -1.027E-04                                 F               0         Tower X translation velocity, node 4, m/s
         77    3.154E-05                                 F               0         Tower Y translation velocity, node 4, m/s
         78    3.509E-06                                 F               0         Tower Z translation velocity, node 4, m/s
         79   -1.830E-04                                 F               0         Tower X translation velocity, node 5, m/s
         80    5.400E-05                                 F               0         Tower Y translation velocity, node 5, m/s
         81    6.248E-06                                 F               0         Tower Z translation velocity, node 5, m/s
         82   -2.824E-04                                 F               0         Tower X translation velocity, node 6, m/s
         83    8.160E-05                                 F               0         Tower Y translation velocity, node 6, m/s
         84    9.685E-06                                 F               0         Tower Z translation velocity, node 6, m/s
         85   -3.974E-04                                 F               0         Tower X translation velocity, node 7, m/s
         86    1.134E-04                                 F               0         Tower Y translation velocity, node 7, m/s
         87    1.370E-05                                 F               0         Tower Z translation velocity, node 7, m/s
         88   -5.271E-04                                 F               0         Tower X translation velocity, node 8, m/s
         89    1.492E-04                                 F               0         Tower Y translation velocity, node 8, m/s
         90    1.826E-05                                 F               0         Tower Z translation velocity, node 8, m/s
         91   -6.686E-04                                 F               0         Tower X translation velocity, node 9, m/s
         92    1.881E-04                                 F               0         Tower Y translation velocity, node 9, m/s
         93    2.327E-05                                 F               0         Tower Z translation velocity, node 9, m/s
         94   -8.189E-04                                 F               0         Tower X translation velocity, node 10, m/s
         95    2.294E-04                                 F               0         Tower Y translation velocity, node 10, m/s
         96    2.860E-05                                 F               0         Tower Z translation velocity, node 10, m/s
         97   -9.749E-04                                 F               0         Tower X translation velocity, node 11, m/s
         98    2.721E-04                                 F               0         Tower Y translation velocity, node 11, m/s
         99    3.413E-05                                 F               0         Tower Z translation velocity, node 11, m/s
        100    3.039E+00                                 F               0         Hub X translation displacement, node 1, m
        101   -7.293E+00                                 F               0         Hub Y translation displacement, node 1, m
        102    3.548E-02                                 F               0         Hub Z translation displacement, node 1, m
        103    9.918E-01,  1.277E-02, -1.270E-01         F               0         Hub X orientation angle, node 1, rad
        104    2.632E-02, -9.941E-01,  1.056E-01         F               0         Hub Y orientation angle, node 1, rad
        105   -1.249E-01, -1.081E-01, -9.863E-01         F               0         Hub Z orientation angle, node 1, rad
        106    8.867E-01                                 F               0         Hub X rotation velocity, node 1, rad/s
        107    1.140E-02                                 F               0         Hub Y rotation velocity, node 1, rad/s
        108   -1.135E-01                                 F               0         Hub Z rotation velocity, node 1, rad/s
        109    9.906E-01,  4.225E-02, -1.301E-01         F               0         Blade root 1 X orientation angle, node 1, rad
        110    5.573E-02, -9.932E-01,  1.018E-01         F               0         Blade root 1 Y orientation angle, node 1, rad
        111   -1.249E-01, -1.081E-01, -9.863E-01         F               0         Blade root 1 Z orientation angle, node 1, rad
        112    9.950E-01,  7.955E-04, -1.001E-01         F               0         Blade root 2 X orientation angle, node 1, rad
        113   -9.186E-02,  4.037E-01, -9.103E-01         F               0         Blade root 2 Y orientation angle, node 1, rad
        114    3.966E-02,  9.149E-01,  4.017E-01         F               0         Blade root 2 Z orientation angle, node 1, rad
        115    9.886E-01, -4.757E-03, -1.507E-01         F               0         Blade root 3 X orientation angle, node 1, rad
        116    1.244E-01,  5.907E-01,  7.972E-01         F               0         Blade root 3 Y orientation angle, node 1, rad
        117    8.525E-02, -8.069E-01,  5.846E-01         F               0         Blade root 3 Z orientation angle, node 1, rad
        118    1.768E+00                                 F               0         Blade 1 X translation displacement, node 1, m
        119   -7.892E+00                                 F               0         Blade 1 Y translation displacement, node 1, m
        120   -1.094E+01                                 F               0         Blade 1 Z translation displacement, node 1, m
        121    1.461E+00                                 F               0         Blade 1 X translation displacement, node 2, m
        122   -8.036E+00                                 F               0         Blade 1 Y translation displacement, node 2, m
        123   -1.358E+01                                 F               0         Blade 1 Z translation displacement, node 2, m
        124   -2.704E+00                                 F               0         Blade 1 X translation displacement, node 3, m
        125   -9.997E+00                                 F               0         Blade 1 Y translation displacement, node 3, m
        126   -4.954E+01                                 F               0         Blade 1 Z translation displacement, node 3, m
        127   -3.591E+00                                 F               0         Blade 1 X translation displacement, node 4, m
        128   -1.042E+01                                 F               0         Blade 1 Y translation displacement, node 4, m
        129   -5.720E+01                                 F               0         Blade 1 Z translation displacement, node 4, m
        130   -4.479E+00                                 F               0         Blade 1 X translation displacement, node 5, m
        131   -1.083E+01                                 F               0         Blade 1 Y translation displacement, node 5, m
        132   -6.486E+01                                 F               0         Blade 1 Z translation displacement, node 5, m
        133   -5.366E+00                                 F               0         Blade 1 X translation displacement, node 6, m
        134   -1.125E+01                                 F               0         Blade 1 Y translation displacement, node 6, m
        135   -7.252E+01                                 F               0         Blade 1 Z translation displacement, node 6, m
        136   -6.253E+00                                 F               0         Blade 1 X translation displacement, node 7, m
        137   -1.167E+01                                 F               0         Blade 1 Y translation displacement, node 7, m
        138   -8.018E+01                                 F               0         Blade 1 Z translation displacement, node 7, m
        139   -7.141E+00                                 F               0         Blade 1 X translation displacement, node 8, m
        140   -1.209E+01                                 F               0         Blade 1 Y translation displacement, node 8, m
        141   -8.784E+01                                 F               0         Blade 1 Z translation displacement, node 8, m
        142   -8.028E+00                                 F               0         Blade 1 X translation displacement, node 9, m
        143   -1.251E+01                                 F               0         Blade 1 Y translation displacement, node 9, m
        144   -9.551E+01                                 F               0         Blade 1 Z translation displacement, node 9, m
        145   -8.915E+00                                 F               0         Blade 1 X translation displacement, node 10, m
        146   -1.292E+01                                 F               0         Blade 1 Y translation displacement, node 10, m
        147   -1.032E+02                                 F               0         Blade 1 Z translation displacement, node 10, m
        148   -9.803E+00                                 F               0         Blade 1 X translation displacement, node 11, m
        149   -1.334E+01                                 F               0         Blade 1 Y translation displacement, node 11, m
        150   -1.108E+02                                 F               0         Blade 1 Z translation displacement, node 11, m
        151   -1.069E+01                                 F               0         Blade 1 X translation displacement, node 12, m
        152   -1.376E+01                                 F               0         Blade 1 Y translation displacement, node 12, m
        153   -1.185E+02                                 F               0         Blade 1 Z translation displacement, node 12, m
        154   -1.158E+01                                 F               0         Blade 1 X translation displacement, node 13, m
        155   -1.418E+01                                 F               0         Blade 1 Y translation displacement, node 13, m
        156   -1.261E+02                                 F               0         Blade 1 Z translation displacement, node 13, m
        157   -1.247E+01                                 F               0         Blade 1 X translation displacement, node 14, m
        158   -1.459E+01                                 F               0         Blade 1 Y translation displacement, node 14, m
        159   -1.338E+02                                 F               0         Blade 1 Z translation displacement, node 14, m
        160   -1.335E+01                                 F               0         Blade 1 X translation displacement, node 15, m
        161   -1.501E+01                                 F               0         Blade 1 Y translation displacement, node 15, m
        162   -1.415E+02                                 F               0         Blade 1 Z translation displacement, node 15, m
        163   -1.424E+01                                 F               0         Blade 1 X translation displacement, node 16, m
        164   -1.543E+01                                 F               0         Blade 1 Y translation displacement, node 16, m
        165   -1.491E+02                                 F               0         Blade 1 Z translation displacement, node 16, m
        166   -1.513E+01                                 F               0         Blade 1 X translation displacement, node 17, m
        167   -1.585E+01                                 F               0         Blade 1 Y translation displacement, node 17, m
        168   -1.568E+02                                 F               0         Blade 1 Z translation displacement, node 17, m
        169   -1.601E+01                                 F               0         Blade 1 X translation displacement, node 18, m
        170   -1.627E+01                                 F               0         Blade 1 Y translation displacement, node 18, m
        171   -1.645E+02                                 F               0         Blade 1 Z translation displacement, node 18, m
        172   -1.690E+01                                 F               0         Blade 1 X translation displacement, node 19, m
        173   -1.668E+01                                 F               0         Blade 1 Y translation displacement, node 19, m
        174   -1.721E+02                                 F               0         Blade 1 Z translation displacement, node 19, m
        175   -1.779E+01                                 F               0         Blade 1 X translation displacement, node 20, m
        176   -1.710E+01                                 F               0         Blade 1 Y translation displacement, node 20, m
        177   -1.798E+02                                 F               0         Blade 1 Z translation displacement, node 20, m
        178   -1.868E+01                                 F               0         Blade 1 X translation displacement, node 21, m
        179   -1.752E+01                                 F               0         Blade 1 Y translation displacement, node 21, m
        180   -1.874E+02                                 F               0         Blade 1 Z translation displacement, node 21, m
        181   -1.956E+01                                 F               0         Blade 1 X translation displacement, node 22, m
        182   -1.794E+01                                 F               0         Blade 1 Y translation displacement, node 22, m
        183   -1.951E+02                                 F               0         Blade 1 Z translation displacement, node 22, m
        184   -2.045E+01                                 F               0         Blade 1 X translation displacement, node 23, m
        185   -1.836E+01                                 F               0         Blade 1 Y translation displacement, node 23, m
        186   -2.028E+02                                 F               0         Blade 1 Z translation displacement, node 23, m
        187   -2.134E+01                                 F               0         Blade 1 X translation displacement, node 24, m
        188   -1.877E+01                                 F               0         Blade 1 Y translation displacement, node 24, m
        189   -2.104E+02                                 F               0         Blade 1 Z translation displacement, node 24, m
        190   -2.223E+01                                 F               0         Blade 1 X translation displacement, node 25, m
        191   -1.919E+01                                 F               0         Blade 1 Y translation displacement, node 25, m
        192   -2.181E+02                                 F               0         Blade 1 Z translation displacement, node 25, m
        193   -2.311E+01                                 F               0         Blade 1 X translation displacement, node 26, m
        194   -1.961E+01                                 F               0         Blade 1 Y translation displacement, node 26, m
        195   -2.257E+02                                 F               0         Blade 1 Z translation displacement, node 26, m
        196   -2.400E+01                                 F               0         Blade 1 X translation displacement, node 27, m
        197   -2.003E+01                                 F               0         Blade 1 Y translation displacement, node 27, m
        198   -2.334E+02                                 F               0         Blade 1 Z translation displacement, node 27, m
        199   -2.475E+01                                 F               0         Blade 1 X translation displacement, node 28, m
        200   -2.038E+01                                 F               0         Blade 1 Y translation displacement, node 28, m
        201   -2.399E+02                                 F               0         Blade 1 Z translation displacement, node 28, m
        202    8.562E-01,  4.905E-01, -1.622E-01         F               0         Blade 1 X orientation angle, node 1, rad
        203    5.013E-01, -8.647E-01,  3.124E-02         F               0         Blade 1 Y orientation angle, node 1, rad
        204   -1.249E-01, -1.081E-01, -9.863E-01         F               0         Blade 1 Z orientation angle, node 1, rad
        205    8.562E-01,  4.905E-01, -1.622E-01         F               0         Blade 1 X orientation angle, node 2, rad
        206    5.013E-01, -8.647E-01,  3.124E-02         F               0         Blade 1 Y orientation angle, node 2, rad
        207   -1.249E-01, -1.081E-01, -9.863E-01         F               0         Blade 1 Z orientation angle, node 2, rad
        208    9.506E-01,  2.716E-01, -1.502E-01         F               0         Blade 1 X orientation angle, node 3, rad
        209    2.841E-01, -9.563E-01,  6.879E-02         F               0         Blade 1 Y orientation angle, node 3, rad
        210   -1.249E-01, -1.081E-01, -9.863E-01         F               0         Blade 1 Z orientation angle, node 3, rad
        211    9.618E-01,  2.310E-01, -1.471E-01         F               0         Blade 1 X orientation angle, node 4, rad
        212    2.437E-01, -9.669E-01,  7.507E-02         F               0         Blade 1 Y orientation angle, node 4, rad
        213   -1.249E-01, -1.081E-01, -9.863E-01         F               0         Blade 1 Z orientation angle, node 4, rad
        214    9.693E-01,  1.988E-01, -1.445E-01         F               0         Blade 1 X orientation angle, node 5, rad
        215    2.117E-01, -9.741E-01,  7.991E-02         F               0         Blade 1 Y orientation angle, node 5, rad
        216   -1.249E-01, -1.081E-01, -9.863E-01         F               0         Blade 1 Z orientation angle, node 5, rad
        217    9.746E-01,  1.729E-01, -1.424E-01         F               0         Blade 1 X orientation angle, node 6, rad
        218    1.859E-01, -9.790E-01,  8.371E-02         F               0         Blade 1 Y orientation angle, node 6, rad
        219   -1.249E-01, -1.081E-01, -9.863E-01         F               0         Blade 1 Z orientation angle, node 6, rad
        220    9.784E-01,  1.515E-01, -1.405E-01         F               0         Blade 1 X orientation angle, node 7, rad
        221    1.646E-01, -9.825E-01,  8.680E-02         F               0         Blade 1 Y orientation angle, node 7, rad
        222   -1.249E-01, -1.081E-01, -9.863E-01         F               0         Blade 1 Z orientation angle, node 7, rad
        223    9.812E-01,  1.336E-01, -1.389E-01         F               0         Blade 1 X orientation angle, node 8, rad
        224    1.468E-01, -9.851E-01,  8.933E-02         F               0         Blade 1 Y orientation angle, node 8, rad
        225   -1.249E-01, -1.081E-01, -9.863E-01         F               0         Blade 1 Z orientation angle, node 8, rad
        226    9.834E-01,  1.185E-01, -1.375E-01         F               0         Blade 1 X orientation angle, node 9, rad
        227    1.317E-01, -9.871E-01,  9.146E-02         F               0         Blade 1 Y orientation angle, node 9, rad