
Linearized model: Predictions were generated on 24-Jan-2024 at 11:24:37 using OpenFAST, compiled as a 64-bit application using single precision at commit v3.5.1
 linked with  NWTC Subroutine Library; ElastoDyn; InflowWind; AeroDyn; ServoDyn; HydroDyn; MAP++ (<1.20.10>, <Oct-20-2023>)

Description from the FAST input file: CCT-9 Campign 4 model. Input files to be run with OpenFAST 3.5.0. GitHub branch from Lu Wang (https://github.com/luwang00/openfast/tree/dev) compiled on March 7, 2023.

Simulation information:
   Simulation time:                   503.7250 s
   Rotor Speed:                         0.8941 rad/s
   Azimuth:                             4.8704 rad
   Wind Speed:                         10.0000 m/s
   Number of continuous states:         0
   Number of discrete states:           0
   Number of constraint states:         0
   Number of inputs:                 1746
   Number of outputs:                   4
   Jacobians included in this file?    No

Order of inputs:
     Column   Operating Point                     Rotating Frame? Derivative Order Description
   ---------- ---------------                     --------------- ---------------- -----------
          1    1.535E-01                                 F               0         Tower X translation displacement, node 1, m
          2   -1.355E+00                                 F               0         Tower Y translation displacement, node 1, m
          3   -4.807E-02                                 F               0         Tower Z translation displacement, node 1, m
          4    3.902E-01                                 F               0         Tower X translation displacement, node 2, m
          5   -1.889E+00                                 F               0         Tower Y translation displacement, node 2, m
          6   -6.192E-02                                 F               0         Tower Z translation displacement, node 2, m
          7    6.403E-01                                 F               0         Tower X translation displacement, node 3, m
          8   -2.429E+00                                 F               0         Tower Y translation displacement, node 3, m
          9   -7.624E-02                                 F               0         Tower Z translation displacement, node 3, m
         10    9.001E-01                                 F               0         Tower X translation displacement, node 4, m
         11   -2.972E+00                                 F               0         Tower Y translation displacement, node 4, m
         12   -9.093E-02                                 F               0         Tower Z translation displacement, node 4, m
         13    1.168E+00                                 F               0         Tower X translation displacement, node 5, m
         14   -3.519E+00                                 F               0         Tower Y translation displacement, node 5, m
         15   -1.059E-01                                 F               0         Tower Z translation displacement, node 5, m
         16    1.442E+00                                 F               0         Tower X translation displacement, node 6, m
         17   -4.069E+00                                 F               0         Tower Y translation displacement, node 6, m
         18   -1.212E-01                                 F               0         Tower Z translation displacement, node 6, m
         19    1.720E+00                                 F               0         Tower X translation displacement, node 7, m
         20   -4.621E+00                                 F               0         Tower Y translation displacement, node 7, m
         21   -1.367E-01                                 F               0         Tower Z translation displacement, node 7, m
         22    2.001E+00                                 F               0         Tower X translation displacement, node 8, m
         23   -5.175E+00                                 F               0         Tower Y translation displacement, node 8, m
         24   -1.523E-01                                 F               0         Tower Z translation displacement, node 8, m
         25    2.284E+00                                 F               0         Tower X translation displacement, node 9, m
         26   -5.730E+00                                 F               0         Tower Y translation displacement, node 9, m
         27   -1.681E-01                                 F               0         Tower Z translation displacement, node 9, m
         28    2.568E+00                                 F               0         Tower X translation displacement, node 10, m
         29   -6.287E+00                                 F               0         Tower Y translation displacement, node 10, m
         30   -1.839E-01                                 F               0         Tower Z translation displacement, node 10, m
         31    2.853E+00                                 F               0         Tower X translation displacement, node 11, m
         32   -6.844E+00                                 F               0         Tower Y translation displacement, node 11, m
         33   -1.997E-01                                 F               0         Tower Z translation displacement, node 11, m
         34    9.998E-01,  7.907E-03, -1.840E-02         F               0         Tower X orientation angle, node 1, rad
         35   -7.105E-03,  9.990E-01,  4.325E-02         F               0         Tower Y orientation angle, node 1, rad
         36    1.873E-02, -4.311E-02,  9.989E-01         F               0         Tower Z orientation angle, node 1, rad
         37    9.998E-01,  7.951E-03, -1.942E-02         F               0         Tower X orientation angle, node 2, rad
         38   -7.098E-03,  9.990E-01,  4.364E-02         F               0         Tower Y orientation angle, node 2, rad
         39    1.975E-02, -4.349E-02,  9.989E-01         F               0         Tower Z orientation angle, node 2, rad
         40    9.998E-01,  7.989E-03, -2.029E-02         F               0         Tower X orientation angle, node 3, rad
         41   -7.091E-03,  9.990E-01,  4.398E-02         F               0         Tower Y orientation angle, node 3, rad
         42    2.062E-02, -4.383E-02,  9.988E-01         F               0         Tower Z orientation angle, node 3, rad
         43    9.997E-01,  8.021E-03, -2.101E-02         F               0         Tower X orientation angle, node 4, rad
         44   -7.084E-03,  9.990E-01,  4.429E-02         F               0         Tower Y orientation angle, node 4, rad
         45    2.134E-02, -4.413E-02,  9.988E-01         F               0         Tower Z orientation angle, node 4, rad
         46    9.997E-01,  8.046E-03, -2.157E-02         F               0         Tower X orientation angle, node 5, rad
         47   -7.079E-03,  9.990E-01,  4.455E-02         F               0         Tower Y orientation angle, node 5, rad
         48    2.191E-02, -4.438E-02,  9.988E-01         F               0         Tower Z orientation angle, node 5, rad
         49    9.997E-01,  8.065E-03, -2.200E-02         F               0         Tower X orientation angle, node 6, rad
         50   -7.074E-03,  9.990E-01,  4.476E-02         F               0         Tower Y orientation angle, node 6, rad
         51    2.234E-02, -4.459E-02,  9.988E-01         F               0         Tower Z orientation angle, node 6, rad
         52    9.997E-01,  8.079E-03, -2.230E-02         F               0         Tower X orientation angle, node 7, rad
         53   -7.070E-03,  9.990E-01,  4.494E-02         F               0         Tower Y orientation angle, node 7, rad
         54    2.264E-02, -4.477E-02,  9.987E-01         F               0         Tower Z orientation angle, node 7, rad
         55    9.997E-01,  8.088E-03, -2.251E-02         F               0         Tower X orientation angle, node 8, rad
         56   -7.067E-03,  9.990E-01,  4.507E-02         F               0         Tower Y orientation angle, node 8, rad
         57    2.285E-02, -4.490E-02,  9.987E-01         F               0         Tower Z orientation angle, node 8, rad
         58    9.997E-01,  8.094E-03, -2.264E-02         F               0         Tower X orientation angle, node 9, rad
         59   -7.065E-03,  9.990E-01,  4.517E-02         F               0         Tower Y orientation angle, node 9, rad
         60    2.298E-02, -4.500E-02,  9.987E-01         F               0         Tower Z orientation angle, node 9, rad
         61    9.997E-01,  8.097E-03, -2.271E-02         F               0         Tower X orientation angle, node 10, rad
         62   -7.064E-03,  9.990E-01,  4.523E-02         F               0         Tower Y orientation angle, node 10, rad
         63    2.305E-02, -4.506E-02,  9.987E-01         F               0         Tower Z orientation angle, node 10, rad
         64    9.997E-01,  8.099E-03, -2.273E-02         F               0         Tower X orientation angle, node 11, rad
         65   -7.063E-03,  9.989E-01,  4.527E-02         F               0         Tower Y orientation angle, node 11, rad
         66    2.308E-02, -4.510E-02,  9.987E-01         F               0         Tower Z orientation angle, node 11, rad
         67    2.008E-06                                 F               0         Tower X translation velocity, node 1, m/s
         68    8.725E-07                                 F               0         Tower Y translation velocity, node 1, m/s
         69    0.000E+00                                 F               0         Tower Z translation velocity, node 1, m/s
         70    5.944E-06                                 F               0         Tower X translation velocity, node 2, m/s
         71    3.093E-05                                 F               0         Tower Y translation velocity, node 2, m/s
         72    1.229E-06                                 F               0         Tower Z translation velocity, node 2, m/s
         73    1.722E-05                                 F               0         Tower X translation velocity, node 3, m/s
         74    1.372E-04                                 F               0         Tower Y translation velocity, node 3, m/s
         75    5.646E-06                                 F               0         Tower Z translation velocity, node 3, m/s
         76    3.541E-05                                 F               0         Tower X translation velocity, node 4, m/s
         77    3.048E-04                                 F               0         Tower Y translation velocity, node 4, m/s
         78    1.264E-05                                 F               0         Tower Z translation velocity, node 4, m/s
         79    6.065E-05                                 F               0         Tower X translation velocity, node 5, m/s
         80    5.266E-04                                 F               0         Tower Y translation velocity, node 5, m/s
         81    2.193E-05                                 F               0         Tower Z translation velocity, node 5, m/s
         82    9.289E-05                                 F               0         Tower X translation velocity, node 6, m/s
         83    7.954E-04                                 F               0         Tower Y translation velocity, node 6, m/s
         84    3.319E-05                                 F               0         Tower Z translation velocity, node 6, m/s
         85    1.313E-04                                 F               0         Tower X translation velocity, node 7, m/s
         86    1.101E-03                                 F               0         Tower Y translation velocity, node 7, m/s
         87    4.600E-05                                 F               0         Tower Z translation velocity, node 7, m/s
         88    1.759E-04                                 F               0         Tower X translation velocity, node 8, m/s
         89    1.440E-03                                 F               0         Tower Y translation velocity, node 8, m/s
         90    6.021E-05                                 F               0         Tower Z translation velocity, node 8, m/s
         91    2.258E-04                                 F               0         Tower X translation velocity, node 9, m/s
         92    1.805E-03                                 F               0         Tower Y translation velocity, node 9, m/s
         93    7.549E-05                                 F               0         Tower Z translation velocity, node 9, m/s
         94    2.799E-04                                 F               0         Tower X translation velocity, node 10, m/s
         95    2.189E-03                                 F               0         Tower Y translation velocity, node 10, m/s
         96    9.153E-05                                 F               0         Tower Z translation velocity, node 10, m/s
         97    3.368E-04                                 F               0         Tower X translation velocity, node 11, m/s
         98    2.583E-03                                 F               0         Tower Y translation velocity, node 11, m/s
         99    1.080E-04                                 F               0         Tower Z translation velocity, node 11, m/s
        100    3.038E+00                                 F               0         Hub X translation displacement, node 1, m
        101   -7.285E+00                                 F               0         Hub Y translation displacement, node 1, m
        102    3.574E-02                                 F               0         Hub Z translation displacement, node 1, m
        103    9.918E-01,  1.277E-02, -1.270E-01         F               0         Hub X orientation angle, node 1, rad
        104   -1.270E-01,  2.006E-01, -9.714E-01         F               0         Hub Y orientation angle, node 1, rad
        105    1.308E-02,  9.796E-01,  2.006E-01         F               0         Hub Z orientation angle, node 1, rad
        106    8.867E-01                                 F               0         Hub X rotation velocity, node 1, rad/s
        107    1.142E-02                                 F               0         Hub Y rotation velocity, node 1, rad/s
        108   -1.135E-01                                 F               0         Hub Z rotation velocity, node 1, rad/s
        109    9.952E-01,  6.811E-03, -9.813E-02         F               0         Blade root 1 X orientation angle, node 1, rad
        110   -9.749E-02,  2.009E-01, -9.747E-01         F               0         Blade root 1 Y orientation angle, node 1, rad
        111    1.308E-02,  9.796E-01,  2.006E-01         F               0         Blade root 1 Z orientation angle, node 1, rad
        112    9.892E-01, -9.429E-03, -1.465E-01         F               0         Blade root 2 X orientation angle, node 1, rad
        113    1.042E-01,  7.481E-01,  6.554E-01         F               0         Blade root 2 Y orientation angle, node 1, rad
        114    1.034E-01, -6.635E-01,  7.410E-01         F               0         Blade root 2 Z orientation angle, node 1, rad
        115    9.898E-01,  4.091E-02, -1.362E-01         F               0         Blade root 3 X orientation angle, node 1, rad
        116    8.156E-02, -9.479E-01,  3.081E-01         F               0         Blade root 3 Y orientation angle, node 1, rad
        117   -1.165E-01, -3.160E-01, -9.416E-01         F               0         Blade root 3 Z orientation angle, node 1, rad
        118    2.531E+00                                 F               0         Blade 1 X translation displacement, node 1, m
        119   -1.859E+00                                 F               0         Blade 1 Y translation displacement, node 1, m
        120   -4.363E+00                                 F               0         Blade 1 Z translation displacement, node 1, m
        121    2.409E+00                                 F               0         Blade 1 X translation displacement, node 2, m
        122   -5.509E-01                                 F               0         Blade 1 Y translation displacement, node 2, m
        123   -5.422E+00                                 F               0         Blade 1 Z translation displacement, node 2, m
        124    7.490E-01                                 F               0         Blade 1 X translation displacement, node 3, m
        125    1.723E+01                                 F               0         Blade 1 Y translation displacement, node 3, m
        126   -1.983E+01                                 F               0         Blade 1 Z translation displacement, node 3, m
        127    3.953E-01                                 F               0         Blade 1 X translation displacement, node 4, m
        128    2.102E+01                                 F               0         Blade 1 Y translation displacement, node 4, m
        129   -2.290E+01                                 F               0         Blade 1 Z translation displacement, node 4, m
        130    4.152E-02                                 F               0         Blade 1 X translation displacement, node 5, m
        131    2.481E+01                                 F               0         Blade 1 Y translation displacement, node 5, m
        132   -2.598E+01                                 F               0         Blade 1 Z translation displacement, node 5, m
        133   -3.122E-01                                 F               0         Blade 1 X translation displacement, node 6, m
        134    2.860E+01                                 F               0         Blade 1 Y translation displacement, node 6, m
        135   -2.905E+01                                 F               0         Blade 1 Z translation displacement, node 6, m
        136   -6.659E-01                                 F               0         Blade 1 X translation displacement, node 7, m
        137    3.239E+01                                 F               0         Blade 1 Y translation displacement, node 7, m
        138   -3.212E+01                                 F               0         Blade 1 Z translation displacement, node 7, m
        139   -1.020E+00                                 F               0         Blade 1 X translation displacement, node 8, m
        140    3.618E+01                                 F               0         Blade 1 Y translation displacement, node 8, m
        141   -3.519E+01                                 F               0         Blade 1 Z translation displacement, node 8, m
        142   -1.373E+00                                 F               0         Blade 1 X translation displacement, node 9, m
        143    3.996E+01                                 F               0         Blade 1 Y translation displacement, node 9, m
        144   -3.826E+01                                 F               0         Blade 1 Z translation displacement, node 9, m
        145   -1.727E+00                                 F               0         Blade 1 X translation displacement, node 10, m
        146    4.375E+01                                 F               0         Blade 1 Y translation displacement, node 10, m
        147   -4.133E+01                                 F               0         Blade 1 Z translation displacement, node 10, m
        148   -2.081E+00                                 F               0         Blade 1 X translation displacement, node 11, m
        149    4.754E+01                                 F               0         Blade 1 Y translation displacement, node 11, m
        150   -4.440E+01                                 F               0         Blade 1 Z translation displacement, node 11, m
        151   -2.434E+00                                 F               0         Blade 1 X translation displacement, node 12, m
        152    5.133E+01                                 F               0         Blade 1 Y translation displacement, node 12, m
        153   -4.747E+01                                 F               0         Blade 1 Z translation displacement, node 12, m
        154   -2.788E+00                                 F               0         Blade 1 X translation displacement, node 13, m
        155    5.512E+01                                 F               0         Blade 1 Y translation displacement, node 13, m
        156   -5.054E+01                                 F               0         Blade 1 Z translation displacement, node 13, m
        157   -3.142E+00                                 F               0         Blade 1 X translation displacement, node 14, m
        158    5.891E+01                                 F               0         Blade 1 Y translation displacement, node 14, m
        159   -5.361E+01                                 F               0         Blade 1 Z translation displacement, node 14, m
        160   -3.496E+00                                 F               0         Blade 1 X translation displacement, node 15, m
        161    6.270E+01                                 F               0         Blade 1 Y translation displacement, node 15, m
        162   -5.668E+01                                 F               0         Blade 1 Z translation displacement, node 15, m
        163   -3.849E+00                                 F               0         Blade 1 X translation displacement, node 16, m
        164    6.648E+01                                 F               0         Blade 1 Y translation displacement, node 16, m
        165   -5.975E+01                                 F               0         Blade 1 Z translation displacement, node 16, m
        166   -4.203E+00                                 F               0         Blade 1 X translation displacement, node 17, m
        167    7.027E+01                                 F               0         Blade 1 Y translation displacement, node 17, m
        168   -6.282E+01                                 F               0         Blade 1 Z translation displacement, node 17, m
        169   -4.557E+00                                 F               0         Blade 1 X translation displacement, node 18, m
        170    7.406E+01                                 F               0         Blade 1 Y translation displacement, node 18, m
        171   -6.589E+01                                 F               0         Blade 1 Z translation displacement, node 18, m
        172   -4.910E+00                                 F               0         Blade 1 X translation displacement, node 19, m
        173    7.785E+01                                 F               0         Blade 1 Y translation displacement, node 19, m
        174   -6.896E+01                                 F               0         Blade 1 Z translation displacement, node 19, m
        175   -5.264E+00                                 F               0         Blade 1 X translation displacement, node 20, m
        176    8.164E+01                                 F               0         Blade 1 Y translation displacement, node 20, m
        177   -7.203E+01                                 F               0         Blade 1 Z translation displacement, node 20, m
        178   -5.618E+00                                 F               0         Blade 1 X translation displacement, node 21, m
        179    8.543E+01                                 F               0         Blade 1 Y translation displacement, node 21, m
        180   -7.511E+01                                 F               0         Blade 1 Z translation displacement, node 21, m
        181   -5.972E+00                                 F               0         Blade 1 X translation displacement, node 22, m
        182    8.922E+01                                 F               0         Blade 1 Y translation displacement, node 22, m
        183   -7.818E+01                                 F               0         Blade 1 Z translation displacement, node 22, m
        184   -6.325E+00                                 F               0         Blade 1 X translation displacement, node 23, m
        185    9.301E+01                                 F               0         Blade 1 Y translation displacement, node 23, m
        186   -8.125E+01                                 F               0         Blade 1 Z translation displacement, node 23, m
        187   -6.679E+00                                 F               0         Blade 1 X translation displacement, node 24, m
        188    9.679E+01                                 F               0         Blade 1 Y translation displacement, node 24, m
        189   -8.432E+01                                 F               0         Blade 1 Z translation displacement, node 24, m
        190   -7.033E+00                                 F               0         Blade 1 X translation displacement, node 25, m
        191    1.006E+02                                 F               0         Blade 1 Y translation displacement, node 25, m
        192   -8.739E+01                                 F               0         Blade 1 Z translation displacement, node 25, m
        193   -7.386E+00                                 F               0         Blade 1 X translation displacement, node 26, m
        194    1.044E+02                                 F               0         Blade 1 Y translation displacement, node 26, m
        195   -9.046E+01                                 F               0         Blade 1 Z translation displacement, node 26, m
        196   -7.740E+00                                 F               0         Blade 1 X translation displacement, node 27, m
        197    1.082E+02                                 F               0         Blade 1 Y translation displacement, node 27, m
        198   -9.353E+01                                 F               0         Blade 1 Z translation displacement, node 27, m
        199   -8.040E+00                                 F               0         Blade 1 X translation displacement, node 28, m
        200    1.114E+02                                 F               0         Blade 1 Y translation displacement, node 28, m
        201   -9.613E+01                                 F               0         Blade 1 Z translation displacement, node 28, m
        202    9.301E-01, -8.556E-02,  3.572E-01         F               0         Blade 1 X orientation angle, node 1, rad
        203    3.670E-01,  1.819E-01, -9.122E-01         F               0         Blade 1 Y orientation angle, node 1, rad
        204    1.308E-02,  9.796E-01,  2.006E-01         F               0         Blade 1 Z orientation angle, node 1, rad
        205    9.301E-01, -8.556E-02,  3.572E-01         F               0         Blade 1 X orientation angle, node 2, rad
        206    3.670E-01,  1.819E-01, -9.122E-01         F               0         Blade 1 Y orientation angle, node 2, rad
        207    1.308E-02,  9.796E-01,  2.006E-01         F               0         Blade 1 Z orientation angle, node 2, rad
        208    9.906E-01, -4.000E-02,  1.308E-01         F               0         Blade 1 X orientation angle, node 3, rad
        209    1.361E-01,  1.970E-01, -9.709E-01         F               0         Blade 1 Y orientation angle, node 3, rad
        210    1.308E-02,  9.796E-01,  2.006E-01         F               0         Blade 1 Z orientation angle, node 3, rad
        211    9.955E-01, -3.165E-02,  8.966E-02         F               0         Blade 1 X orientation angle, node 4, rad
        212    9.418E-02,  1.985E-01, -9.756E-01         F               0         Blade 1 Y orientation angle, node 4, rad
        213    1.308E-02,  9.796E-01,  2.006E-01         F               0         Blade 1 Z orientation angle, node 4, rad
        214    9.980E-01, -2.505E-02,  5.727E-02         F               0         Blade 1 X orientation angle, node 5, rad
        215    6.112E-02,  1.995E-01, -9.780E-01         F               0         Blade 1 Y orientation angle, node 5, rad
        216    1.308E-02,  9.796E-01,  2.006E-01         F               0         Blade 1 Z orientation angle, node 5, rad
        217    9.993E-01, -1.975E-02,  3.131E-02         F               0         Blade 1 X orientation angle, node 6, rad
        218    3.463E-02,  2.001E-01, -9.792E-01         F               0         Blade 1 Y orientation angle, node 6, rad
        219    1.308E-02,  9.796E-01,  2.006E-01         F               0         Blade 1 Z orientation angle, node 6, rad
        220    9.998E-01, -1.538E-02,  9.938E-03         F               0         Blade 1 X orientation angle, node 7, rad
        221    1.282E-02,  2.004E-01, -9.796E-01         F               0         Blade 1 Y orientation angle, node 7, rad
        222    1.308E-02,  9.796E-01,  2.006E-01         F               0         Blade 1 Z orientation angle, node 7, rad
        223    9.999E-01, -1.174E-02, -7.844E-03         F               0         Blade 1 X orientation angle, node 8, rad
        224   -5.328E-03,  2.007E-01, -9.796E-01         F               0         Blade 1 Y orientation angle, node 8, rad
        225    1.308E-02,  9.796E-01,  2.006E-01         F               0         Blade 1 Z orientation angle, node 8, rad
        226    9.997E-01, -8.658E-03, -2.289E-02         F               0         Blade 1 X orientation angle, node 9, rad
        227   -2.068E-02,  2.008E-01, -9.794E-01         F               0         Blade 1 Y orientation angle, node 9, rad