
Linearized model: Predictions were generated on 24-Jan-2024 at 11:24:37 using OpenFAST, compiled as a 64-bit application using single precision at commit v3.5.1
 linked with  NWTC Subroutine Library; ElastoDyn; InflowWind; AeroDyn; ServoDyn; HydroDyn; MAP++ (<1.20.10>, <Oct-20-2023>)

Description from the FAST input file: CCT-9 Campign 4 model. Input files to be run with OpenFAST 3.5.0. GitHub branch from Lu Wang (https://github.com/luwang00/openfast/tree/dev) compiled on March 7, 2023.

Simulation information:
   Simulation time:                   502.7250 s
   Rotor Speed:                         0.8942 rad/s
   Azimuth:                             3.9762 rad
   Wind Speed:                         10.0000 m/s
   Number of continuous states:         0
   Number of discrete states:           0
   Number of constraint states:         0
   Number of inputs:                  303
   Number of outputs:                   1
   Jacobians included in this file?    No

Order of inputs:
     Column   Operating Point                     Rotating Frame? Derivative Order Description
   ---------- ---------------                     --------------- ---------------- -----------
          1   -1.080E+01                                 F               0         X-component position of node 1 (hub), m
          2    0.000E+00                                 F               0         Y-component position of node 1 (hub), m
          3    1.497E+02                                 F               0         Z-component position of node 1 (hub), m
          4   -8.266E+00                                 F               0         X-component position of node 2 (blade 1, node 1), m
          5   -3.025E+00                                 F               0         Y-component position of node 2 (blade 1, node 1), m
          6    1.463E+02                                 F               0         Z-component position of node 2 (blade 1, node 1), m
          7   -8.387E+00                                 F               0         X-component position of node 3 (blade 1, node 2), m
          8   -1.997E+00                                 F               0         Y-component position of node 3 (blade 1, node 2), m
          9    1.454E+02                                 F               0         Z-component position of node 3 (blade 1, node 2), m
         10   -1.004E+01                                 F               0         X-component position of node 4 (blade 1, node 3), m
         11    1.198E+01                                 F               0         Y-component position of node 4 (blade 1, node 3), m
         12    1.340E+02                                 F               0         Z-component position of node 4 (blade 1, node 3), m
         13   -1.039E+01                                 F               0         X-component position of node 5 (blade 1, node 4), m
         14    1.496E+01                                 F               0         Y-component position of node 5 (blade 1, node 4), m
         15    1.315E+02                                 F               0         Z-component position of node 5 (blade 1, node 4), m
         16   -1.074E+01                                 F               0         X-component position of node 6 (blade 1, node 5), m
         17    1.793E+01                                 F               0         Y-component position of node 6 (blade 1, node 5), m
         18    1.291E+02                                 F               0         Z-component position of node 6 (blade 1, node 5), m
         19   -1.109E+01                                 F               0         X-component position of node 7 (blade 1, node 6), m
         20    2.091E+01                                 F               0         Y-component position of node 7 (blade 1, node 6), m
         21    1.266E+02                                 F               0         Z-component position of node 7 (blade 1, node 6), m
         22   -1.144E+01                                 F               0         X-component position of node 8 (blade 1, node 7), m
         23    2.389E+01                                 F               0         Y-component position of node 8 (blade 1, node 7), m
         24    1.242E+02                                 F               0         Z-component position of node 8 (blade 1, node 7), m
         25   -1.179E+01                                 F               0         X-component position of node 9 (blade 1, node 8), m
         26    2.687E+01                                 F               0         Y-component position of node 9 (blade 1, node 8), m
         27    1.217E+02                                 F               0         Z-component position of node 9 (blade 1, node 8), m
         28   -1.214E+01                                 F               0         X-component position of node 10 (blade 1, node 9), m
         29    2.984E+01                                 F               0         Y-component position of node 10 (blade 1, node 9), m
         30    1.193E+02                                 F               0         Z-component position of node 10 (blade 1, node 9), m
         31   -1.249E+01                                 F               0         X-component position of node 11 (blade 1, node 10), m
         32    3.282E+01                                 F               0         Y-component position of node 11 (blade 1, node 10), m
         33    1.169E+02                                 F               0         Z-component position of node 11 (blade 1, node 10), m
         34   -1.285E+01                                 F               0         X-component position of node 12 (blade 1, node 11), m
         35    3.580E+01                                 F               0         Y-component position of node 12 (blade 1, node 11), m
         36    1.144E+02                                 F               0         Z-component position of node 12 (blade 1, node 11), m
         37   -1.320E+01                                 F               0         X-component position of node 13 (blade 1, node 12), m
         38    3.878E+01                                 F               0         Y-component position of node 13 (blade 1, node 12), m
         39    1.120E+02                                 F               0         Z-component position of node 13 (blade 1, node 12), m
         40   -1.355E+01                                 F               0         X-component position of node 14 (blade 1, node 13), m
         41    4.175E+01                                 F               0         Y-component position of node 14 (blade 1, node 13), m
         42    1.095E+02                                 F               0         Z-component position of node 14 (blade 1, node 13), m
         43   -1.390E+01                                 F               0         X-component position of node 15 (blade 1, node 14), m
         44    4.473E+01                                 F               0         Y-component position of node 15 (blade 1, node 14), m
         45    1.071E+02                                 F               0         Z-component position of node 15 (blade 1, node 14), m
         46   -1.425E+01                                 F               0         X-component position of node 16 (blade 1, node 15), m
         47    4.771E+01                                 F               0         Y-component position of node 16 (blade 1, node 15), m
         48    1.046E+02                                 F               0         Z-component position of node 16 (blade 1, node 15), m
         49   -1.460E+01                                 F               0         X-component position of node 17 (blade 1, node 16), m
         50    5.069E+01                                 F               0         Y-component position of node 17 (blade 1, node 16), m
         51    1.022E+02                                 F               0         Z-component position of node 17 (blade 1, node 16), m
         52   -1.495E+01                                 F               0         X-component position of node 18 (blade 1, node 17), m
         53    5.366E+01                                 F               0         Y-component position of node 18 (blade 1, node 17), m
         54    9.976E+01                                 F               0         Z-component position of node 18 (blade 1, node 17), m
         55   -1.530E+01                                 F               0         X-component position of node 19 (blade 1, node 18), m
         56    5.664E+01                                 F               0         Y-component position of node 19 (blade 1, node 18), m
         57    9.732E+01                                 F               0         Z-component position of node 19 (blade 1, node 18), m
         58   -1.565E+01                                 F               0         X-component position of node 20 (blade 1, node 19), m
         59    5.962E+01                                 F               0         Y-component position of node 20 (blade 1, node 19), m
         60    9.487E+01                                 F               0         Z-component position of node 20 (blade 1, node 19), m
         61   -1.601E+01                                 F               0         X-component position of node 21 (blade 1, node 20), m
         62    6.260E+01                                 F               0         Y-component position of node 21 (blade 1, node 20), m
         63    9.243E+01                                 F               0         Z-component position of node 21 (blade 1, node 20), m
         64   -1.636E+01                                 F               0         X-component position of node 22 (blade 1, node 21), m
         65    6.557E+01                                 F               0         Y-component position of node 22 (blade 1, node 21), m
         66    8.999E+01                                 F               0         Z-component position of node 22 (blade 1, node 21), m
         67   -1.671E+01                                 F               0         X-component position of node 23 (blade 1, node 22), m
         68    6.855E+01                                 F               0         Y-component position of node 23 (blade 1, node 22), m
         69    8.754E+01                                 F               0         Z-component position of node 23 (blade 1, node 22), m
         70   -1.706E+01                                 F               0         X-component position of node 24 (blade 1, node 23), m
         71    7.153E+01                                 F               0         Y-component position of node 24 (blade 1, node 23), m
         72    8.510E+01                                 F               0         Z-component position of node 24 (blade 1, node 23), m
         73   -1.741E+01                                 F               0         X-component position of node 25 (blade 1, node 24), m
         74    7.451E+01                                 F               0         Y-component position of node 25 (blade 1, node 24), m
         75    8.266E+01                                 F               0         Z-component position of node 25 (blade 1, node 24), m
         76   -1.776E+01                                 F               0         X-component position of node 26 (blade 1, node 25), m
         77    7.748E+01                                 F               0         Y-component position of node 26 (blade 1, node 25), m
         78    8.021E+01                                 F               0         Z-component position of node 26 (blade 1, node 25), m
         79   -1.811E+01                                 F               0         X-component position of node 27 (blade 1, node 26), m
         80    8.046E+01                                 F               0         Y-component position of node 27 (blade 1, node 26), m
         81    7.777E+01                                 F               0         Z-component position of node 27 (blade 1, node 26), m
         82   -1.846E+01                                 F               0         X-component position of node 28 (blade 1, node 27), m
         83    8.344E+01                                 F               0         Y-component position of node 28 (blade 1, node 27), m
         84    7.533E+01                                 F               0         Z-component position of node 28 (blade 1, node 27), m
         85   -1.876E+01                                 F               0         X-component position of node 29 (blade 1, node 28), m
         86    8.596E+01                                 F               0         Y-component position of node 29 (blade 1, node 28), m
         87    7.325E+01                                 F               0         Z-component position of node 29 (blade 1, node 28), m
         88   -7.081E+00                                 F               0         X-component position of node 30 (blade 2, node 1), m
         89   -6.361E+00                                 F               0         Y-component position of node 30 (blade 2, node 1), m
         90    1.552E+02                                 F               0         Z-component position of node 30 (blade 2, node 1), m
         91   -6.917E+00                                 F               0         X-component position of node 31 (blade 2, node 2), m
         92   -6.137E+00                                 F               0         Y-component position of node 31 (blade 2, node 2), m
         93    1.565E+02                                 F               0         Z-component position of node 31 (blade 2, node 2), m
         94   -4.682E+00                                 F               0         X-component position of node 32 (blade 2, node 3), m
         95   -3.093E+00                                 F               0         Y-component position of node 32 (blade 2, node 3), m
         96    1.743E+02                                 F               0         Z-component position of node 32 (blade 2, node 3), m
         97   -4.206E+00                                 F               0         X-component position of node 33 (blade 2, node 4), m
         98   -2.444E+00                                 F               0         Y-component position of node 33 (blade 2, node 4), m
         99    1.780E+02                                 F               0         Z-component position of node 33 (blade 2, node 4), m
        100   -3.730E+00                                 F               0         X-component position of node 34 (blade 2, node 5), m
        101   -1.796E+00                                 F               0         Y-component position of node 34 (blade 2, node 5), m
        102    1.818E+02                                 F               0         Z-component position of node 34 (blade 2, node 5), m
        103   -3.254E+00                                 F               0         X-component position of node 35 (blade 2, node 6), m
        104   -1.147E+00                                 F               0         Y-component position of node 35 (blade 2, node 6), m
        105    1.856E+02                                 F               0         Z-component position of node 35 (blade 2, node 6), m
        106   -2.778E+00                                 F               0         X-component position of node 36 (blade 2, node 7), m
        107   -4.988E-01                                 F               0         Y-component position of node 36 (blade 2, node 7), m
        108    1.894E+02                                 F               0         Z-component position of node 36 (blade 2, node 7), m
        109   -2.302E+00                                 F               0         X-component position of node 37 (blade 2, node 8), m
        110    1.498E-01                                 F               0         Y-component position of node 37 (blade 2, node 8), m
        111    1.932E+02                                 F               0         Z-component position of node 37 (blade 2, node 8), m
        112   -1.826E+00                                 F               0         X-component position of node 38 (blade 2, node 9), m
        113    7.983E-01                                 F               0         Y-component position of node 38 (blade 2, node 9), m
        114    1.970E+02                                 F               0         Z-component position of node 38 (blade 2, node 9), m
        115   -1.350E+00                                 F               0         X-component position of node 39 (blade 2, node 10), m
        116    1.447E+00                                 F               0         Y-component position of node 39 (blade 2, node 10), m
        117    2.007E+02                                 F               0         Z-component position of node 39 (blade 2, node 10), m
        118   -8.736E-01                                 F               0         X-component position of node 40 (blade 2, node 11), m
        119    2.095E+00                                 F               0         Y-component position of node 40 (blade 2, node 11), m
        120    2.045E+02                                 F               0         Z-component position of node 40 (blade 2, node 11), m
        121   -3.974E-01                                 F               0         X-component position of node 41 (blade 2, node 12), m
        122    2.744E+00                                 F               0         Y-component position of node 41 (blade 2, node 12), m
        123    2.083E+02                                 F               0         Z-component position of node 41 (blade 2, node 12), m
        124    7.864E-02                                 F               0         X-component position of node 42 (blade 2, node 13), m
        125    3.392E+00                                 F               0         Y-component position of node 42 (blade 2, node 13), m
        126    2.121E+02                                 F               0         Z-component position of node 42 (blade 2, node 13), m
        127    5.547E-01                                 F               0         X-component position of node 43 (blade 2, node 14), m
        128    4.041E+00                                 F               0         Y-component position of node 43 (blade 2, node 14), m
        129    2.159E+02                                 F               0         Z-component position of node 43 (blade 2, node 14), m
        130    1.031E+00                                 F               0         X-component position of node 44 (blade 2, node 15), m
        131    4.689E+00                                 F               0         Y-component position of node 44 (blade 2, node 15), m
        132    2.197E+02                                 F               0         Z-component position of node 44 (blade 2, node 15), m
        133    1.507E+00                                 F               0         X-component position of node 45 (blade 2, node 16), m
        134    5.338E+00                                 F               0         Y-component position of node 45 (blade 2, node 16), m
        135    2.234E+02                                 F               0         Z-component position of node 45 (blade 2, node 16), m
        136    1.983E+00                                 F               0         X-component position of node 46 (blade 2, node 17), m
        137    5.986E+00                                 F               0         Y-component position of node 46 (blade 2, node 17), m
        138    2.272E+02                                 F               0         Z-component position of node 46 (blade 2, node 17), m
        139    2.459E+00                                 F               0         X-component position of node 47 (blade 2, node 18), m
        140    6.635E+00                                 F               0         Y-component position of node 47 (blade 2, node 18), m
        141    2.310E+02                                 F               0         Z-component position of node 47 (blade 2, node 18), m
        142    2.935E+00                                 F               0         X-component position of node 48 (blade 2, node 19), m
        143    7.284E+00                                 F               0         Y-component position of node 48 (blade 2, node 19), m
        144    2.348E+02                                 F               0         Z-component position of node 48 (blade 2, node 19), m
        145    3.411E+00                                 F               0         X-component position of node 49 (blade 2, node 20), m
        146    7.932E+00                                 F               0         Y-component position of node 49 (blade 2, node 20), m
        147    2.386E+02                                 F               0         Z-component position of node 49 (blade 2, node 20), m
        148    3.887E+00                                 F               0         X-component position of node 50 (blade 2, node 21), m
        149    8.581E+00                                 F               0         Y-component position of node 50 (blade 2, node 21), m
        150    2.424E+02                                 F               0         Z-component position of node 50 (blade 2, node 21), m
        151    4.363E+00                                 F               0         X-component position of node 51 (blade 2, node 22), m
        152    9.229E+00                                 F               0         Y-component position of node 51 (blade 2, node 22), m
        153    2.461E+02                                 F               0         Z-component position of node 51 (blade 2, node 22), m
        154    4.839E+00                                 F               0         X-component position of node 52 (blade 2, node 23), m
        155    9.878E+00                                 F               0         Y-component position of node 52 (blade 2, node 23), m
        156    2.499E+02                                 F               0         Z-component position of node 52 (blade 2, node 23), m
        157    5.316E+00                                 F               0         X-component position of node 53 (blade 2, node 24), m
        158    1.053E+01                                 F               0         Y-component position of node 53 (blade 2, node 24), m
        159    2.537E+02                                 F               0         Z-component position of node 53 (blade 2, node 24), m
        160    5.792E+00                                 F               0         X-component position of node 54 (blade 2, node 25), m
        161    1.117E+01                                 F               0         Y-component position of node 54 (blade 2, node 25), m
        162    2.575E+02                                 F               0         Z-component position of node 54 (blade 2, node 25), m
        163    6.268E+00                                 F               0         X-component position of node 55 (blade 2, node 26), m
        164    1.182E+01                                 F               0         Y-component position of node 55 (blade 2, node 26), m
        165    2.613E+02                                 F               0         Z-component position of node 55 (blade 2, node 26), m
        166    6.744E+00                                 F               0         X-component position of node 56 (blade 2, node 27), m
        167    1.247E+01                                 F               0         Y-component position of node 56 (blade 2, node 27), m
        168    2.651E+02                                 F               0         Z-component position of node 56 (blade 2, node 27), m
        169    7.147E+00                                 F               0         X-component position of node 57 (blade 2, node 28), m
        170    1.302E+01                                 F               0         Y-component position of node 57 (blade 2, node 28), m
        171    2.683E+02                                 F               0         Z-component position of node 57 (blade 2, node 28), m
        172   -7.942E+00                                 F               0         X-component position of node 58 (blade 3, node 1), m
        173   -1.248E+01                                 F               0         Y-component position of node 58 (blade 3, node 1), m
        174    1.479E+02                                 F               0         Z-component position of node 58 (blade 3, node 1), m
        175   -7.985E+00                                 F               0         X-component position of node 59 (blade 3, node 2), m
        176   -1.373E+01                                 F               0         Y-component position of node 59 (blade 3, node 2), m
        177    1.474E+02                                 F               0         Z-component position of node 59 (blade 3, node 2), m
        178   -8.571E+00                                 F               0         X-component position of node 60 (blade 3, node 3), m
        179   -3.075E+01                                 F               0         Y-component position of node 60 (blade 3, node 3), m
        180    1.411E+02                                 F               0         Z-component position of node 60 (blade 3, node 3), m
        181   -8.696E+00                                 F               0         X-component position of node 61 (blade 3, node 4), m
        182   -3.438E+01                                 F               0         Y-component position of node 61 (blade 3, node 4), m
        183    1.398E+02                                 F               0         Z-component position of node 61 (blade 3, node 4), m
        184   -8.821E+00                                 F               0         X-component position of node 62 (blade 3, node 5), m
        185   -3.801E+01                                 F               0         Y-component position of node 62 (blade 3, node 5), m
        186    1.384E+02                                 F               0         Z-component position of node 62 (blade 3, node 5), m
        187   -8.945E+00                                 F               0         X-component position of node 63 (blade 3, node 6), m
        188   -4.163E+01                                 F               0         Y-component position of node 63 (blade 3, node 6), m
        189    1.371E+02                                 F               0         Z-component position of node 63 (blade 3, node 6), m
        190   -9.070E+00                                 F               0         X-component position of node 64 (blade 3, node 7), m
        191   -4.526E+01                                 F               0         Y-component position of node 64 (blade 3, node 7), m
        192    1.357E+02                                 F               0         Z-component position of node 64 (blade 3, node 7), m
        193   -9.195E+00                                 F               0         X-component position of node 65 (blade 3, node 8), m
        194   -4.888E+01                                 F               0         Y-component position of node 65 (blade 3, node 8), m
        195    1.344E+02                                 F               0         Z-component position of node 65 (blade 3, node 8), m
        196   -9.320E+00                                 F               0         X-component position of node 66 (blade 3, node 9), m
        197   -5.251E+01                                 F               0         Y-component position of node 66 (blade 3, node 9), m
        198    1.331E+02                                 F               0         Z-component position of node 66 (blade 3, node 9), m
        199   -9.445E+00                                 F               0         X-component position of node 67 (blade 3, node 10), m
        200   -5.614E+01                                 F               0         Y-component position of node 67 (blade 3, node 10), m
        201    1.317E+02                                 F               0         Z-component position of node 67 (blade 3, node 10), m
        202   -9.570E+00                                 F               0         X-component position of node 68 (blade 3, node 11), m
        203   -5.976E+01                                 F               0         Y-component position of node 68 (blade 3, node 11), m
        204    1.304E+02                                 F               0         Z-component position of node 68 (blade 3, node 11), m
        205   -9.695E+00                                 F               0         X-component position of node 69 (blade 3, node 12), m
        206   -6.339E+01                                 F               0         Y-component position of node 69 (blade 3, node 12), m
        207    1.290E+02                                 F               0         Z-component position of node 69 (blade 3, node 12), m
        208   -9.820E+00                                 F               0         X-component position of node 70 (blade 3, node 13), m
        209   -6.701E+01                                 F               0         Y-component position of node 70 (blade 3, node 13), m
        210    1.277E+02                                 F               0         Z-component position of node 70 (blade 3, node 13), m
        211   -9.944E+00                                 F               0         X-component position of node 71 (blade 3, node 14), m