
Linearized model: Predictions were generated on 24-Jan-2024 at 11:24:37 using OpenFAST, compiled as a 64-bit application using single precision at commit v3.5.1
 linked with  NWTC Subroutine Library; ElastoDyn; InflowWind; AeroDyn; ServoDyn; HydroDyn; MAP++ (<1.20.10>, <Oct-20-2023>)

Description from the FAST input file: CCT-9 Campign 4 model. Input files to be run with OpenFAST 3.5.0. GitHub branch from Lu Wang (https://github.com/luwang00/openfast/tree/dev) compiled on March 7, 2023.

Simulation information:
   Simulation time:                   501.2500 s
   Rotor Speed:                         0.8939 rad/s
   Azimuth:                             2.6575 rad
   Wind Speed:                         10.0000 m/s
   Number of continuous states:        12
   Number of discrete states:           0
   Number of constraint states:         0
   Number of inputs:                 3988
   Number of outputs:                  31
   Jacobians included in this file?    No

Order of continuous states:
   Row/Column Operating Point                     Rotating Frame? Derivative Order Description
   ---------- ---------------                     --------------- ---------------- -----------
          1    7.508E-03                                 F               2         ED Platform yaw rotation DOF (internal DOF index = DOF_Y), rad
          2    3.847E-01                                 F               2         ED 1st tower fore-aft bending mode DOF (internal DOF index = DOF_TFA1), m
          3    1.738E-01                                 F               2         ED 1st tower side-to-side bending mode DOF (internal DOF index = DOF_TSS1), m
          4    1.288E-03                                 F               2         ED 2nd tower fore-aft bending mode DOF (internal DOF index = DOF_TFA2), m
          5    7.396E-05                                 F               2         ED 2nd tower side-to-side bending mode DOF (internal DOF index = DOF_TSS2), m
          6    1.087E+00                                 F               2         ED Variable speed generator DOF (internal DOF index = DOF_GeAz), rad
          7    6.781E-07                                 F               2         ED First time derivative of Platform yaw rotation DOF (internal DOF index = DOF_Y), rad/s
          8   -8.734E-04                                 F               2         ED First time derivative of 1st tower fore-aft bending mode DOF (internal DOF index = DOF_TFA1), m/s
          9    3.131E-04                                 F               2         ED First time derivative of 1st tower side-to-side bending mode DOF (internal DOF index = DOF_TSS1), m/s
         10    3.359E-06                                 F               2         ED First time derivative of 2nd tower fore-aft bending mode DOF (internal DOF index = DOF_TFA2), m/s
         11    3.456E-08                                 F               2         ED First time derivative of 2nd tower side-to-side bending mode DOF (internal DOF index = DOF_TSS2), m/s
         12    8.939E-01                                 F               2         ED First time derivative of Variable speed generator DOF (internal DOF index = DOF_GeAz), rad/s

Order of continuous state derivatives:
   Row/Column Operating Point                     Rotating Frame? Derivative Order Description
   ---------- ---------------                     --------------- ---------------- -----------
          1    6.781E-07                                 F               2         First time derivative of ED Platform yaw rotation DOF (internal DOF index = DOF_Y), rad/s
          2   -8.734E-04                                 F               2         First time derivative of ED 1st tower fore-aft bending mode DOF (internal DOF index = DOF_TFA1), m/s
          3    3.131E-04                                 F               2         First time derivative of ED 1st tower side-to-side bending mode DOF (internal DOF index = DOF_TSS1), m/s
          4    3.359E-06                                 F               2         First time derivative of ED 2nd tower fore-aft bending mode DOF (internal DOF index = DOF_TFA2), m/s
          5    3.456E-08                                 F               2         First time derivative of ED 2nd tower side-to-side bending mode DOF (internal DOF index = DOF_TSS2), m/s
          6    8.939E-01                                 F               2         First time derivative of ED Variable speed generator DOF (internal DOF index = DOF_GeAz), rad/s
          7    3.997E-06                                 F               2         First time derivative of ED First time derivative of Platform yaw rotation DOF (internal DOF index = DOF_Y), rad/s/s
          8   -4.453E-04                                 F               2         First time derivative of ED First time derivative of 1st tower fore-aft bending mode DOF (internal DOF index = DOF_TFA1), m/s/s
          9   -4.755E-03                                 F               2         First time derivative of ED First time derivative of 1st tower side-to-side bending mode DOF (internal DOF index = DOF_TSS1), m/s/s
         10   -2.676E-06                                 F               2         First time derivative of ED First time derivative of 2nd tower fore-aft bending mode DOF (internal DOF index = DOF_TFA2), m/s/s
         11    3.933E-06                                 F               2         First time derivative of ED First time derivative of 2nd tower side-to-side bending mode DOF (internal DOF index = DOF_TSS2), m/s/s
         12    2.453E-04                                 F               2         First time derivative of ED First time derivative of Variable speed generator DOF (internal DOF index = DOF_GeAz), rad/s/s

Order of inputs:
     Column   Operating Point                     Rotating Frame? Derivative Order Description
   ---------- ---------------                     --------------- ---------------- -----------
          1   -1.080E+01                                 F               0         IfW X-component position of node 1 (hub), m
          2    0.000E+00                                 F               0         IfW Y-component position of node 1 (hub), m
          3    1.497E+02                                 F               0         IfW Z-component position of node 1 (hub), m
          4   -8.368E+00                                 F               0         IfW X-component position of node 2 (blade 1, node 1), m
          5   -9.653E+00                                 F               0         IfW Y-component position of node 2 (blade 1, node 1), m
          6    1.448E+02                                 F               0         IfW Z-component position of node 2 (blade 1, node 1), m
          7   -8.515E+00                                 F               0         IfW X-component position of node 3 (blade 1, node 2), m
          8   -1.022E+01                                 F               0         IfW Y-component position of node 3 (blade 1, node 2), m
          9    1.436E+02                                 F               0         IfW Z-component position of node 3 (blade 1, node 2), m
         10   -1.050E+01                                 F               0         IfW X-component position of node 4 (blade 1, node 3), m
         11   -1.795E+01                                 F               0         IfW Y-component position of node 4 (blade 1, node 3), m
         12    1.273E+02                                 F               0         IfW Z-component position of node 4 (blade 1, node 3), m
         13   -1.093E+01                                 F               0         IfW X-component position of node 5 (blade 1, node 4), m
         14   -1.960E+01                                 F               0         IfW Y-component position of node 5 (blade 1, node 4), m
         15    1.238E+02                                 F               0         IfW Z-component position of node 5 (blade 1, node 4), m
         16   -1.135E+01                                 F               0         IfW X-component position of node 6 (blade 1, node 5), m
         17   -2.125E+01                                 F               0         IfW Y-component position of node 6 (blade 1, node 5), m
         18    1.204E+02                                 F               0         IfW Z-component position of node 6 (blade 1, node 5), m
         19   -1.177E+01                                 F               0         IfW X-component position of node 7 (blade 1, node 6), m
         20   -2.289E+01                                 F               0         IfW Y-component position of node 7 (blade 1, node 6), m
         21    1.169E+02                                 F               0         IfW Z-component position of node 7 (blade 1, node 6), m
         22   -1.220E+01                                 F               0         IfW X-component position of node 8 (blade 1, node 7), m
         23   -2.454E+01                                 F               0         IfW Y-component position of node 8 (blade 1, node 7), m
         24    1.134E+02                                 F               0         IfW Z-component position of node 8 (blade 1, node 7), m
         25   -1.262E+01                                 F               0         IfW X-component position of node 9 (blade 1, node 8), m
         26   -2.619E+01                                 F               0         IfW Y-component position of node 9 (blade 1, node 8), m
         27    1.099E+02                                 F               0         IfW Z-component position of node 9 (blade 1, node 8), m
         28   -1.304E+01                                 F               0         IfW X-component position of node 10 (blade 1, node 9), m
         29   -2.784E+01                                 F               0         IfW Y-component position of node 10 (blade 1, node 9), m
         30    1.065E+02                                 F               0         IfW Z-component position of node 10 (blade 1, node 9), m
         31   -1.347E+01                                 F               0         IfW X-component position of node 11 (blade 1, node 10), m
         32   -2.948E+01                                 F               0         IfW Y-component position of node 11 (blade 1, node 10), m
         33    1.030E+02                                 F               0         IfW Z-component position of node 11 (blade 1, node 10), m
         34   -1.389E+01                                 F               0         IfW X-component position of node 12 (blade 1, node 11), m
         35   -3.113E+01                                 F               0         IfW Y-component position of node 12 (blade 1, node 11), m
         36    9.951E+01                                 F               0         IfW Z-component position of node 12 (blade 1, node 11), m
         37   -1.432E+01                                 F               0         IfW X-component position of node 13 (blade 1, node 12), m
         38   -3.278E+01                                 F               0         IfW Y-component position of node 13 (blade 1, node 12), m
         39    9.604E+01                                 F               0         IfW Z-component position of node 13 (blade 1, node 12), m
         40   -1.474E+01                                 F               0         IfW X-component position of node 14 (blade 1, node 13), m
         41   -3.443E+01                                 F               0         IfW Y-component position of node 14 (blade 1, node 13), m
         42    9.256E+01                                 F               0         IfW Z-component position of node 14 (blade 1, node 13), m
         43   -1.516E+01                                 F               0         IfW X-component position of node 15 (blade 1, node 14), m
         44   -3.607E+01                                 F               0         IfW Y-component position of node 15 (blade 1, node 14), m
         45    8.909E+01                                 F               0         IfW Z-component position of node 15 (blade 1, node 14), m
         46   -1.559E+01                                 F               0         IfW X-component position of node 16 (blade 1, node 15), m
         47   -3.772E+01                                 F               0         IfW Y-component position of node 16 (blade 1, node 15), m
         48    8.561E+01                                 F               0         IfW Z-component position of node 16 (blade 1, node 15), m
         49   -1.601E+01                                 F               0         IfW X-component position of node 17 (blade 1, node 16), m
         50   -3.937E+01                                 F               0         IfW Y-component position of node 17 (blade 1, node 16), m
         51    8.214E+01                                 F               0         IfW Z-component position of node 17 (blade 1, node 16), m
         52   -1.643E+01                                 F               0         IfW X-component position of node 18 (blade 1, node 17), m
         53   -4.101E+01                                 F               0         IfW Y-component position of node 18 (blade 1, node 17), m
         54    7.867E+01                                 F               0         IfW Z-component position of node 18 (blade 1, node 17), m
         55   -1.686E+01                                 F               0         IfW X-component position of node 19 (blade 1, node 18), m
         56   -4.266E+01                                 F               0         IfW Y-component position of node 19 (blade 1, node 18), m
         57    7.519E+01                                 F               0         IfW Z-component position of node 19 (blade 1, node 18), m
         58   -1.728E+01                                 F               0         IfW X-component position of node 20 (blade 1, node 19), m
         59   -4.431E+01                                 F               0         IfW Y-component position of node 20 (blade 1, node 19), m
         60    7.172E+01                                 F               0         IfW Z-component position of node 20 (blade 1, node 19), m
         61   -1.770E+01                                 F               0         IfW X-component position of node 21 (blade 1, node 20), m
         62   -4.596E+01                                 F               0         IfW Y-component position of node 21 (blade 1, node 20), m
         63    6.825E+01                                 F               0         IfW Z-component position of node 21 (blade 1, node 20), m
         64   -1.813E+01                                 F               0         IfW X-component position of node 22 (blade 1, node 21), m
         65   -4.760E+01                                 F               0         IfW Y-component position of node 22 (blade 1, node 21), m
         66    6.477E+01                                 F               0         IfW Z-component position of node 22 (blade 1, node 21), m
         67   -1.855E+01                                 F               0         IfW X-component position of node 23 (blade 1, node 22), m
         68   -4.925E+01                                 F               0         IfW Y-component position of node 23 (blade 1, node 22), m
         69    6.130E+01                                 F               0         IfW Z-component position of node 23 (blade 1, node 22), m
         70   -1.898E+01                                 F               0         IfW X-component position of node 24 (blade 1, node 23), m
         71   -5.090E+01                                 F               0         IfW Y-component position of node 24 (blade 1, node 23), m
         72    5.783E+01                                 F               0         IfW Z-component position of node 24 (blade 1, node 23), m
         73   -1.940E+01                                 F               0         IfW X-component position of node 25 (blade 1, node 24), m
         74   -5.254E+01                                 F               0         IfW Y-component position of node 25 (blade 1, node 24), m
         75    5.435E+01                                 F               0         IfW Z-component position of node 25 (blade 1, node 24), m
         76   -1.982E+01                                 F               0         IfW X-component position of node 26 (blade 1, node 25), m
         77   -5.419E+01                                 F               0         IfW Y-component position of node 26 (blade 1, node 25), m
         78    5.088E+01                                 F               0         IfW Z-component position of node 26 (blade 1, node 25), m
         79   -2.025E+01                                 F               0         IfW X-component position of node 27 (blade 1, node 26), m
         80   -5.584E+01                                 F               0         IfW Y-component position of node 27 (blade 1, node 26), m
         81    4.740E+01                                 F               0         IfW Z-component position of node 27 (blade 1, node 26), m
         82   -2.067E+01                                 F               0         IfW X-component position of node 28 (blade 1, node 27), m
         83   -5.749E+01                                 F               0         IfW Y-component position of node 28 (blade 1, node 27), m
         84    4.393E+01                                 F               0         IfW Z-component position of node 28 (blade 1, node 27), m
         85   -2.103E+01                                 F               0         IfW X-component position of node 29 (blade 1, node 28), m
         86   -5.888E+01                                 F               0         IfW Y-component position of node 29 (blade 1, node 28), m
         87    4.099E+01                                 F               0         IfW Z-component position of node 29 (blade 1, node 28), m
         88   -7.773E+00                                 F               0         IfW X-component position of node 30 (blade 2, node 1), m
         89   -1.774E+00                                 F               0         IfW Y-component position of node 30 (blade 2, node 1), m
         90    1.502E+02                                 F               0         IfW Z-component position of node 30 (blade 2, node 1), m
         91   -7.775E+00                                 F               0         IfW X-component position of node 31 (blade 2, node 2), m
         92   -4.434E-01                                 F               0         IfW Y-component position of node 31 (blade 2, node 2), m
         93    1.504E+02                                 F               0         IfW Z-component position of node 31 (blade 2, node 2), m
         94   -7.812E+00                                 F               0         IfW X-component position of node 32 (blade 2, node 3), m
         95    1.764E+01                                 F               0         IfW Y-component position of node 32 (blade 2, node 3), m
         96    1.519E+02                                 F               0         IfW Z-component position of node 32 (blade 2, node 3), m
         97   -7.820E+00                                 F               0         IfW X-component position of node 33 (blade 2, node 4), m
         98    2.150E+01                                 F               0         IfW Y-component position of node 33 (blade 2, node 4), m
         99    1.522E+02                                 F               0         IfW Z-component position of node 33 (blade 2, node 4), m
        100   -7.828E+00                                 F               0         IfW X-component position of node 34 (blade 2, node 5), m
        101    2.535E+01                                 F               0         IfW Y-component position of node 34 (blade 2, node 5), m
        102    1.525E+02                                 F               0         IfW Z-component position of node 34 (blade 2, node 5), m
        103   -7.835E+00                                 F               0         IfW X-component position of node 35 (blade 2, node 6), m
        104    2.921E+01                                 F               0         IfW Y-component position of node 35 (blade 2, node 6), m
        105    1.529E+02                                 F               0         IfW Z-component position of node 35 (blade 2, node 6), m
        106   -7.843E+00                                 F               0         IfW X-component position of node 36 (blade 2, node 7), m
        107    3.306E+01                                 F               0         IfW Y-component position of node 36 (blade 2, node 7), m
        108    1.532E+02                                 F               0         IfW Z-component position of node 36 (blade 2, node 7), m
        109   -7.851E+00                                 F               0         IfW X-component position of node 37 (blade 2, node 8), m
        110    3.691E+01                                 F               0         IfW Y-component position of node 37 (blade 2, node 8), m
        111    1.535E+02                                 F               0         IfW Z-component position of node 37 (blade 2, node 8), m
        112   -7.859E+00                                 F               0         IfW X-component position of node 38 (blade 2, node 9), m
        113    4.077E+01                                 F               0         IfW Y-component position of node 38 (blade 2, node 9), m
        114    1.538E+02                                 F               0         IfW Z-component position of node 38 (blade 2, node 9), m
        115   -7.867E+00                                 F               0         IfW X-component position of node 39 (blade 2, node 10), m
        116    4.462E+01                                 F               0         IfW Y-component position of node 39 (blade 2, node 10), m
        117    1.542E+02                                 F               0         IfW Z-component position of node 39 (blade 2, node 10), m
        118   -7.874E+00                                 F               0         IfW X-component position of node 40 (blade 2, node 11), m
        119    4.847E+01                                 F               0         IfW Y-component position of node 40 (blade 2, node 11), m
        120    1.545E+02                                 F               0         IfW Z-component position of node 40 (blade 2, node 11), m
        121   -7.882E+00                                 F               0         IfW X-component position of node 41 (blade 2, node 12), m
        122    5.233E+01                                 F               0         IfW Y-component position of node 41 (blade 2, node 12), m
        123    1.548E+02                                 F               0         IfW Z-component position of node 41 (blade 2, node 12), m
        124   -7.890E+00                                 F               0         IfW X-component position of node 42 (blade 2, node 13), m
        125    5.618E+01                                 F               0         IfW Y-component position of node 42 (blade 2, node 13), m
        126    1.552E+02                                 F               0         IfW Z-component position of node 42 (blade 2, node 13), m
        127   -7.898E+00                                 F               0         IfW X-component position of node 43 (blade 2, node 14), m
        128    6.004E+01                                 F               0         IfW Y-component position of node 43 (blade 2, node 14), m
        129    1.555E+02                                 F               0         IfW Z-component position of node 43 (blade 2, node 14), m
        130   -7.906E+00                                 F               0         IfW X-component position of node 44 (blade 2, node 15), m
        131    6.389E+01                                 F               0         IfW Y-component position of node 44 (blade 2, node 15), m
        132    1.558E+02                                 F               0         IfW Z-component position of node 44 (blade 2, node 15), m
        133   -7.913E+00                                 F               0         IfW X-component position of node 45 (blade 2, node 16), m
        134    6.774E+01                                 F               0         IfW Y-component position of node 45 (blade 2, node 16), m
        135    1.561E+02                                 F               0         IfW Z-component position of node 45 (blade 2, node 16), m
        136   -7.921E+00                                 F               0         IfW X-component position of node 46 (blade 2, node 17), m
        137    7.160E+01                                 F               0         IfW Y-component position of node 46 (blade 2, node 17), m
        138    1.565E+02                                 F               0         IfW Z-component position of node 46 (blade 2, node 17), m
        139   -7.929E+00                                 F               0         IfW X-component position of node 47 (blade 2, node 18), m
        140    7.545E+01                                 F               0         IfW Y-component position of node 47 (blade 2, node 18), m
        141    1.568E+02                                 F               0         IfW Z-component position of node 47 (blade 2, node 18), m
        142   -7.937E+00                                 F               0         IfW X-component position of node 48 (blade 2, node 19), m
        143    7.931E+01                                 F               0         IfW Y-component position of node 48 (blade 2, node 19), m
        144    1.571E+02                                 F               0         IfW Z-component position of node 48 (blade 2, node 19), m
        145   -7.945E+00                                 F               0         IfW X-component position of node 49 (blade 2, node 20), m
        146    8.316E+01                                 F               0         IfW Y-component position of node 49 (blade 2, node 20), m
        147    1.574E+02                                 F               0         IfW Z-component position of node 49 (blade 2, node 20), m
        148   -7.952E+00                                 F               0         IfW X-component position of node 50 (blade 2, node 21), m
        149    8.701E+01                                 F               0         IfW Y-component position of node 50 (blade 2, node 21), m
        150    1.578E+02                                 F               0         IfW Z-component position of node 50 (blade 2, node 21), m
        151   -7.960E+00                                 F               0         IfW X-component position of node 51 (blade 2, node 22), m
        152    9.087E+01                                 F               0         IfW Y-component position of node 51 (blade 2, node 22), m
        153    1.581E+02                                 F               0         IfW Z-component position of node 51 (blade 2, node 22), m
        154   -7.968E+00                                 F               0         IfW X-component position of node 52 (blade 2, node 23), m
        155    9.472E+01                                 F               0         IfW Y-component position of node 52 (blade 2, node 23), m
        156    1.584E+02                                 F               0         IfW Z-component position of node 52 (blade 2, node 23), m
        157   -7.976E+00                                 F               0         IfW X-component position of node 53 (blade 2, node 24), m
        158    9.858E+01                                 F               0         IfW Y-component position of node 53 (blade 2, node 24), m
        159    1.587E+02                                 F               0         IfW Z-component position of node 53 (blade 2, node 24), m
        160   -7.983E+00                                 F               0         IfW X-component position of node 54 (blade 2, node 25), m
        161    1.024E+02                                 F               0         IfW Y-component position of node 54 (blade 2, node 25), m
        162    1.591E+02                                 F               0         IfW Z-component position of node 54 (blade 2, node 25), m
        163   -7.991E+00                                 F               0         IfW X-component position of node 55 (blade 2, node 26), m
        164    1.063E+02                                 F               0         IfW Y-component position of node 55 (blade 2, node 26), m
        165    1.594E+02                                 F               0         IfW Z-component position of node 55 (blade 2, node 26), m
        166   -7.999E+00                                 F               0         IfW X-component position of node 56 (blade 2, node 27), m
        167    1.101E+02                                 F               0         IfW Y-component position of node 56 (blade 2, node 27), m
        168    1.597E+02                                 F               0         IfW Z-component position of node 56 (blade 2, node 27), m
        169   -8.006E+00                                 F               0         IfW X-component position of node 57 (blade 2, node 28), m
        170    1.134E+02                                 F               0         IfW Y-component position of node 57 (blade 2, node 28), m