
Linearized model: Predictions were generated on 24-Jan-2024 at 11:24:37 using OpenFAST, compiled as a 64-bit application using single precision at commit v3.5.1
 linked with  NWTC Subroutine Library; ElastoDyn; InflowWind; AeroDyn; ServoDyn; HydroDyn; MAP++ (<1.20.10>, <Oct-20-2023>)

Description from the FAST input file: CCT-9 Campign 4 model. Input files to be run with OpenFAST 3.5.0. GitHub branch from Lu Wang (https://github.com/luwang00/openfast/tree/dev) compiled on March 7, 2023.

Simulation information:
   Simulation time:                   503.2250 s
   Rotor Speed:                         0.8942 rad/s
   Azimuth:                             4.4233 rad
   Wind Speed:                         10.0000 m/s
   Number of continuous states:        12
   Number of discrete states:           0
   Number of constraint states:         0
   Number of inputs:                 3988
   Number of outputs:                  31
   Jacobians included in this file?    No

Order of continuous states:
   Row/Column Operating Point                     Rotating Frame? Derivative Order Description
   ---------- ---------------                     --------------- ---------------- -----------
          1    7.513E-03                                 F               2         ED Platform yaw rotation DOF (internal DOF index = DOF_Y), rad
          2    3.835E-01                                 F               2         ED 1st tower fore-aft bending mode DOF (internal DOF index = DOF_TFA1), m
          3    1.678E-01                                 F               2         ED 1st tower side-to-side bending mode DOF (internal DOF index = DOF_TSS1), m
          4    1.291E-03                                 F               2         ED 2nd tower fore-aft bending mode DOF (internal DOF index = DOF_TFA2), m
          5    7.504E-05                                 F               2         ED 2nd tower side-to-side bending mode DOF (internal DOF index = DOF_TSS2), m
          6    2.853E+00                                 F               2         ED Variable speed generator DOF (internal DOF index = DOF_GeAz), rad
          7    3.365E-06                                 F               2         ED First time derivative of Platform yaw rotation DOF (internal DOF index = DOF_Y), rad/s
          8    8.813E-05                                 F               2         ED First time derivative of 1st tower fore-aft bending mode DOF (internal DOF index = DOF_TFA1), m/s
          9   -3.882E-03                                 F               2         ED First time derivative of 1st tower side-to-side bending mode DOF (internal DOF index = DOF_TSS1), m/s
         10    1.217E-06                                 F               2         ED First time derivative of 2nd tower fore-aft bending mode DOF (internal DOF index = DOF_TFA2), m/s
         11    8.539E-07                                 F               2         ED First time derivative of 2nd tower side-to-side bending mode DOF (internal DOF index = DOF_TSS2), m/s
         12    8.942E-01                                 F               2         ED First time derivative of Variable speed generator DOF (internal DOF index = DOF_GeAz), rad/s

Order of continuous state derivatives:
   Row/Column Operating Point                     Rotating Frame? Derivative Order Description
   ---------- ---------------                     --------------- ---------------- -----------
          1    3.365E-06                                 F               2         First time derivative of ED Platform yaw rotation DOF (internal DOF index = DOF_Y), rad/s
          2    8.813E-05                                 F               2         First time derivative of ED 1st tower fore-aft bending mode DOF (internal DOF index = DOF_TFA1), m/s
          3   -3.882E-03                                 F               2         First time derivative of ED 1st tower side-to-side bending mode DOF (internal DOF index = DOF_TSS1), m/s
          4    1.217E-06                                 F               2         First time derivative of ED 2nd tower fore-aft bending mode DOF (internal DOF index = DOF_TFA2), m/s
          5    8.539E-07                                 F               2         First time derivative of ED 2nd tower side-to-side bending mode DOF (internal DOF index = DOF_TSS2), m/s
          6    8.942E-01                                 F               2         First time derivative of ED Variable speed generator DOF (internal DOF index = DOF_GeAz), rad/s
          7   -6.699E-07                                 F               2         First time derivative of ED First time derivative of Platform yaw rotation DOF (internal DOF index = DOF_Y), rad/s/s
          8    6.430E-04                                 F               2         First time derivative of ED First time derivative of 1st tower fore-aft bending mode DOF (internal DOF index = DOF_TFA1), m/s/s
          9    1.983E-03                                 F               2         First time derivative of ED First time derivative of 1st tower side-to-side bending mode DOF (internal DOF index = DOF_TSS1), m/s/s
         10   -3.602E-06                                 F               2         First time derivative of ED First time derivative of 2nd tower fore-aft bending mode DOF (internal DOF index = DOF_TFA2), m/s/s
         11    1.105E-06                                 F               2         First time derivative of ED First time derivative of 2nd tower side-to-side bending mode DOF (internal DOF index = DOF_TSS2), m/s/s
         12   -7.603E-05                                 F               2         First time derivative of ED First time derivative of Variable speed generator DOF (internal DOF index = DOF_GeAz), rad/s/s

Order of inputs:
     Column   Operating Point                     Rotating Frame? Derivative Order Description
   ---------- ---------------                     --------------- ---------------- -----------
          1   -1.080E+01                                 F               0         IfW X-component position of node 1 (hub), m
          2    0.000E+00                                 F               0         IfW Y-component position of node 1 (hub), m
          3    1.497E+02                                 F               0         IfW Z-component position of node 1 (hub), m
          4   -8.002E+00                                 F               0         IfW X-component position of node 2 (blade 1, node 1), m
          5   -1.913E+00                                 F               0         IfW Y-component position of node 2 (blade 1, node 1), m
          6    1.485E+02                                 F               0         IfW Z-component position of node 2 (blade 1, node 1), m
          7   -8.059E+00                                 F               0         IfW X-component position of node 3 (blade 1, node 2), m
          8   -6.182E-01                                 F               0         IfW Y-component position of node 3 (blade 1, node 2), m
          9    1.481E+02                                 F               0         IfW Z-component position of node 3 (blade 1, node 2), m
         10   -8.842E+00                                 F               0         IfW X-component position of node 4 (blade 1, node 3), m
         11    1.699E+01                                 F               0         IfW Y-component position of node 4 (blade 1, node 3), m
         12    1.438E+02                                 F               0         IfW Z-component position of node 4 (blade 1, node 3), m
         13   -9.008E+00                                 F               0         IfW X-component position of node 5 (blade 1, node 4), m
         14    2.074E+01                                 F               0         IfW Y-component position of node 5 (blade 1, node 4), m
         15    1.429E+02                                 F               0         IfW Z-component position of node 5 (blade 1, node 4), m
         16   -9.175E+00                                 F               0         IfW X-component position of node 6 (blade 1, node 5), m
         17    2.449E+01                                 F               0         IfW Y-component position of node 6 (blade 1, node 5), m
         18    1.419E+02                                 F               0         IfW Z-component position of node 6 (blade 1, node 5), m
         19   -9.342E+00                                 F               0         IfW X-component position of node 7 (blade 1, node 6), m
         20    2.825E+01                                 F               0         IfW Y-component position of node 7 (blade 1, node 6), m
         21    1.410E+02                                 F               0         IfW Z-component position of node 7 (blade 1, node 6), m
         22   -9.508E+00                                 F               0         IfW X-component position of node 8 (blade 1, node 7), m
         23    3.200E+01                                 F               0         IfW Y-component position of node 8 (blade 1, node 7), m
         24    1.401E+02                                 F               0         IfW Z-component position of node 8 (blade 1, node 7), m
         25   -9.675E+00                                 F               0         IfW X-component position of node 9 (blade 1, node 8), m
         26    3.575E+01                                 F               0         IfW Y-component position of node 9 (blade 1, node 8), m
         27    1.392E+02                                 F               0         IfW Z-component position of node 9 (blade 1, node 8), m
         28   -9.842E+00                                 F               0         IfW X-component position of node 10 (blade 1, node 9), m
         29    3.950E+01                                 F               0         IfW Y-component position of node 10 (blade 1, node 9), m
         30    1.382E+02                                 F               0         IfW Z-component position of node 10 (blade 1, node 9), m
         31   -1.001E+01                                 F               0         IfW X-component position of node 11 (blade 1, node 10), m
         32    4.325E+01                                 F               0         IfW Y-component position of node 11 (blade 1, node 10), m
         33    1.373E+02                                 F               0         IfW Z-component position of node 11 (blade 1, node 10), m
         34   -1.018E+01                                 F               0         IfW X-component position of node 12 (blade 1, node 11), m
         35    4.701E+01                                 F               0         IfW Y-component position of node 12 (blade 1, node 11), m
         36    1.364E+02                                 F               0         IfW Z-component position of node 12 (blade 1, node 11), m
         37   -1.034E+01                                 F               0         IfW X-component position of node 13 (blade 1, node 12), m
         38    5.076E+01                                 F               0         IfW Y-component position of node 13 (blade 1, node 12), m
         39    1.355E+02                                 F               0         IfW Z-component position of node 13 (blade 1, node 12), m
         40   -1.051E+01                                 F               0         IfW X-component position of node 14 (blade 1, node 13), m
         41    5.451E+01                                 F               0         IfW Y-component position of node 14 (blade 1, node 13), m
         42    1.345E+02                                 F               0         IfW Z-component position of node 14 (blade 1, node 13), m
         43   -1.068E+01                                 F               0         IfW X-component position of node 15 (blade 1, node 14), m
         44    5.826E+01                                 F               0         IfW Y-component position of node 15 (blade 1, node 14), m
         45    1.336E+02                                 F               0         IfW Z-component position of node 15 (blade 1, node 14), m
         46   -1.084E+01                                 F               0         IfW X-component position of node 16 (blade 1, node 15), m
         47    6.201E+01                                 F               0         IfW Y-component position of node 16 (blade 1, node 15), m
         48    1.327E+02                                 F               0         IfW Z-component position of node 16 (blade 1, node 15), m
         49   -1.101E+01                                 F               0         IfW X-component position of node 17 (blade 1, node 16), m
         50    6.576E+01                                 F               0         IfW Y-component position of node 17 (blade 1, node 16), m
         51    1.318E+02                                 F               0         IfW Z-component position of node 17 (blade 1, node 16), m
         52   -1.118E+01                                 F               0         IfW X-component position of node 18 (blade 1, node 17), m
         53    6.952E+01                                 F               0         IfW Y-component position of node 18 (blade 1, node 17), m
         54    1.308E+02                                 F               0         IfW Z-component position of node 18 (blade 1, node 17), m
         55   -1.134E+01                                 F               0         IfW X-component position of node 19 (blade 1, node 18), m
         56    7.327E+01                                 F               0         IfW Y-component position of node 19 (blade 1, node 18), m
         57    1.299E+02                                 F               0         IfW Z-component position of node 19 (blade 1, node 18), m
         58   -1.151E+01                                 F               0         IfW X-component position of node 20 (blade 1, node 19), m
         59    7.702E+01                                 F               0         IfW Y-component position of node 20 (blade 1, node 19), m
         60    1.290E+02                                 F               0         IfW Z-component position of node 20 (blade 1, node 19), m
         61   -1.168E+01                                 F               0         IfW X-component position of node 21 (blade 1, node 20), m
         62    8.077E+01                                 F               0         IfW Y-component position of node 21 (blade 1, node 20), m
         63    1.281E+02                                 F               0         IfW Z-component position of node 21 (blade 1, node 20), m
         64   -1.184E+01                                 F               0         IfW X-component position of node 22 (blade 1, node 21), m
         65    8.452E+01                                 F               0         IfW Y-component position of node 22 (blade 1, node 21), m
         66    1.272E+02                                 F               0         IfW Z-component position of node 22 (blade 1, node 21), m
         67   -1.201E+01                                 F               0         IfW X-component position of node 23 (blade 1, node 22), m
         68    8.828E+01                                 F               0         IfW Y-component position of node 23 (blade 1, node 22), m
         69    1.262E+02                                 F               0         IfW Z-component position of node 23 (blade 1, node 22), m
         70   -1.218E+01                                 F               0         IfW X-component position of node 24 (blade 1, node 23), m
         71    9.203E+01                                 F               0         IfW Y-component position of node 24 (blade 1, node 23), m
         72    1.253E+02                                 F               0         IfW Z-component position of node 24 (blade 1, node 23), m
         73   -1.234E+01                                 F               0         IfW X-component position of node 25 (blade 1, node 24), m
         74    9.578E+01                                 F               0         IfW Y-component position of node 25 (blade 1, node 24), m
         75    1.244E+02                                 F               0         IfW Z-component position of node 25 (blade 1, node 24), m
         76   -1.251E+01                                 F               0         IfW X-component position of node 26 (blade 1, node 25), m
         77    9.953E+01                                 F               0         IfW Y-component position of node 26 (blade 1, node 25), m
         78    1.235E+02                                 F               0         IfW Z-component position of node 26 (blade 1, node 25), m
         79   -1.268E+01                                 F               0         IfW X-component position of node 27 (blade 1, node 26), m
         80    1.033E+02                                 F               0         IfW Y-component position of node 27 (blade 1, node 26), m
         81    1.225E+02                                 F               0         IfW Z-component position of node 27 (blade 1, node 26), m
         82   -1.284E+01                                 F               0         IfW X-component position of node 28 (blade 1, node 27), m
         83    1.070E+02                                 F               0         IfW Y-component position of node 28 (blade 1, node 27), m
         84    1.216E+02                                 F               0         IfW Z-component position of node 28 (blade 1, node 27), m
         85   -1.298E+01                                 F               0         IfW X-component position of node 29 (blade 1, node 28), m
         86    1.102E+02                                 F               0         IfW Y-component position of node 29 (blade 1, node 28), m
         87    1.208E+02                                 F               0         IfW Z-component position of node 29 (blade 1, node 28), m
         88   -7.067E+00                                 F               0         IfW X-component position of node 30 (blade 2, node 1), m
         89   -8.810E+00                                 F               0         IfW Y-component position of node 30 (blade 2, node 1), m
         90    1.551E+02                                 F               0         IfW Z-component position of node 30 (blade 2, node 1), m
         91   -6.899E+00                                 F               0         IfW X-component position of node 31 (blade 2, node 2), m
         92   -9.177E+00                                 F               0         IfW Y-component position of node 31 (blade 2, node 2), m
         93    1.563E+02                                 F               0         IfW Z-component position of node 31 (blade 2, node 2), m
         94   -4.619E+00                                 F               0         IfW X-component position of node 32 (blade 2, node 3), m
         95   -1.417E+01                                 F               0         IfW Y-component position of node 32 (blade 2, node 3), m
         96    1.736E+02                                 F               0         IfW Z-component position of node 32 (blade 2, node 3), m
         97   -4.134E+00                                 F               0         IfW X-component position of node 33 (blade 2, node 4), m
         98   -1.523E+01                                 F               0         IfW Y-component position of node 33 (blade 2, node 4), m
         99    1.773E+02                                 F               0         IfW Z-component position of node 33 (blade 2, node 4), m
        100   -3.648E+00                                 F               0         IfW X-component position of node 34 (blade 2, node 5), m
        101   -1.630E+01                                 F               0         IfW Y-component position of node 34 (blade 2, node 5), m
        102    1.810E+02                                 F               0         IfW Z-component position of node 34 (blade 2, node 5), m
        103   -3.162E+00                                 F               0         IfW X-component position of node 35 (blade 2, node 6), m
        104   -1.736E+01                                 F               0         IfW Y-component position of node 35 (blade 2, node 6), m
        105    1.847E+02                                 F               0         IfW Z-component position of node 35 (blade 2, node 6), m
        106   -2.676E+00                                 F               0         IfW X-component position of node 36 (blade 2, node 7), m
        107   -1.842E+01                                 F               0         IfW Y-component position of node 36 (blade 2, node 7), m
        108    1.884E+02                                 F               0         IfW Z-component position of node 36 (blade 2, node 7), m
        109   -2.191E+00                                 F               0         IfW X-component position of node 37 (blade 2, node 8), m
        110   -1.949E+01                                 F               0         IfW Y-component position of node 37 (blade 2, node 8), m
        111    1.921E+02                                 F               0         IfW Z-component position of node 37 (blade 2, node 8), m
        112   -1.705E+00                                 F               0         IfW X-component position of node 38 (blade 2, node 9), m
        113   -2.055E+01                                 F               0         IfW Y-component position of node 38 (blade 2, node 9), m
        114    1.958E+02                                 F               0         IfW Z-component position of node 38 (blade 2, node 9), m
        115   -1.219E+00                                 F               0         IfW X-component position of node 39 (blade 2, node 10), m
        116   -2.161E+01                                 F               0         IfW Y-component position of node 39 (blade 2, node 10), m
        117    1.994E+02                                 F               0         IfW Z-component position of node 39 (blade 2, node 10), m
        118   -7.332E-01                                 F               0         IfW X-component position of node 40 (blade 2, node 11), m
        119   -2.268E+01                                 F               0         IfW Y-component position of node 40 (blade 2, node 11), m
        120    2.031E+02                                 F               0         IfW Z-component position of node 40 (blade 2, node 11), m
        121   -2.474E-01                                 F               0         IfW X-component position of node 41 (blade 2, node 12), m
        122   -2.374E+01                                 F               0         IfW Y-component position of node 41 (blade 2, node 12), m
        123    2.068E+02                                 F               0         IfW Z-component position of node 41 (blade 2, node 12), m
        124    2.384E-01                                 F               0         IfW X-component position of node 42 (blade 2, node 13), m
        125   -2.480E+01                                 F               0         IfW Y-component position of node 42 (blade 2, node 13), m
        126    2.105E+02                                 F               0         IfW Z-component position of node 42 (blade 2, node 13), m
        127    7.241E-01                                 F               0         IfW X-component position of node 43 (blade 2, node 14), m
        128   -2.587E+01                                 F               0         IfW Y-component position of node 43 (blade 2, node 14), m
        129    2.142E+02                                 F               0         IfW Z-component position of node 43 (blade 2, node 14), m
        130    1.210E+00                                 F               0         IfW X-component position of node 44 (blade 2, node 15), m
        131   -2.693E+01                                 F               0         IfW Y-component position of node 44 (blade 2, node 15), m
        132    2.179E+02                                 F               0         IfW Z-component position of node 44 (blade 2, node 15), m
        133    1.696E+00                                 F               0         IfW X-component position of node 45 (blade 2, node 16), m
        134   -2.799E+01                                 F               0         IfW Y-component position of node 45 (blade 2, node 16), m
        135    2.216E+02                                 F               0         IfW Z-component position of node 45 (blade 2, node 16), m
        136    2.181E+00                                 F               0         IfW X-component position of node 46 (blade 2, node 17), m
        137   -2.906E+01                                 F               0         IfW Y-component position of node 46 (blade 2, node 17), m
        138    2.252E+02                                 F               0         IfW Z-component position of node 46 (blade 2, node 17), m
        139    2.667E+00                                 F               0         IfW X-component position of node 47 (blade 2, node 18), m
        140   -3.012E+01                                 F               0         IfW Y-component position of node 47 (blade 2, node 18), m
        141    2.289E+02                                 F               0         IfW Z-component position of node 47 (blade 2, node 18), m
        142    3.153E+00                                 F               0         IfW X-component position of node 48 (blade 2, node 19), m
        143   -3.118E+01                                 F               0         IfW Y-component position of node 48 (blade 2, node 19), m
        144    2.326E+02                                 F               0         IfW Z-component position of node 48 (blade 2, node 19), m
        145    3.639E+00                                 F               0         IfW X-component position of node 49 (blade 2, node 20), m
        146   -3.225E+01                                 F               0         IfW Y-component position of node 49 (blade 2, node 20), m
        147    2.363E+02                                 F               0         IfW Z-component position of node 49 (blade 2, node 20), m
        148    4.125E+00                                 F               0         IfW X-component position of node 50 (blade 2, node 21), m
        149   -3.331E+01                                 F               0         IfW Y-component position of node 50 (blade 2, node 21), m
        150    2.400E+02                                 F               0         IfW Z-component position of node 50 (blade 2, node 21), m
        151    4.610E+00                                 F               0         IfW X-component position of node 51 (blade 2, node 22), m
        152   -3.437E+01                                 F               0         IfW Y-component position of node 51 (blade 2, node 22), m
        153    2.437E+02                                 F               0         IfW Z-component position of node 51 (blade 2, node 22), m
        154    5.096E+00                                 F               0         IfW X-component position of node 52 (blade 2, node 23), m
        155   -3.544E+01                                 F               0         IfW Y-component position of node 52 (blade 2, node 23), m
        156    2.474E+02                                 F               0         IfW Z-component position of node 52 (blade 2, node 23), m
        157    5.582E+00                                 F               0         IfW X-component position of node 53 (blade 2, node 24), m
        158   -3.650E+01                                 F               0         IfW Y-component position of node 53 (blade 2, node 24), m
        159    2.511E+02                                 F               0         IfW Z-component position of node 53 (blade 2, node 24), m
        160    6.068E+00                                 F               0         IfW X-component position of node 54 (blade 2, node 25), m
        161   -3.756E+01                                 F               0         IfW Y-component position of node 54 (blade 2, node 25), m
        162    2.547E+02                                 F               0         IfW Z-component position of node 54 (blade 2, node 25), m
        163    6.554E+00                                 F               0         IfW X-component position of node 55 (blade 2, node 26), m
        164   -3.863E+01                                 F               0         IfW Y-component position of node 55 (blade 2, node 26), m
        165    2.584E+02                                 F               0         IfW Z-component position of node 55 (blade 2, node 26), m
        166    7.039E+00                                 F               0         IfW X-component position of node 56 (blade 2, node 27), m
        167   -3.969E+01                                 F               0         IfW Y-component position of node 56 (blade 2, node 27), m
        168    2.621E+02                                 F               0         IfW Z-component position of node 56 (blade 2, node 27), m
        169    7.451E+00                                 F               0         IfW X-component position of node 57 (blade 2, node 28), m
        170   -4.059E+01                                 F               0         IfW Y-component position of node 57 (blade 2, node 28), m