
Linearized model: Predictions were generated on 24-Jan-2024 at 11:24:37 using OpenFAST, compiled as a 64-bit application using single precision at commit v3.5.1
 linked with  NWTC Subroutine Library; ElastoDyn; InflowWind; AeroDyn; ServoDyn; HydroDyn; MAP++ (<1.20.10>, <Oct-20-2023>)

Description from the FAST input file: CCT-9 Campign 4 model. Input files to be run with OpenFAST 3.5.0. GitHub branch from Lu Wang (https://github.com/luwang00/openfast/tree/dev) compiled on March 7, 2023.

Simulation information:
   Simulation time:                   502.4750 s
   Rotor Speed:                         0.8941 rad/s
   Azimuth:                             3.7527 rad
   Wind Speed:                         10.0000 m/s
   Number of continuous states:         0
   Number of discrete states:           0
   Number of constraint states:         0
   Number of inputs:                 1746
   Number of outputs:                   4
   Jacobians included in this file?    No

Order of inputs:
     Column   Operating Point                     Rotating Frame? Derivative Order Description
   ---------- ---------------                     --------------- ---------------- -----------
          1    1.535E-01                                 F               0         Tower X translation displacement, node 1, m
          2   -1.355E+00                                 F               0         Tower Y translation displacement, node 1, m
          3   -4.807E-02                                 F               0         Tower Z translation displacement, node 1, m
          4    3.902E-01                                 F               0         Tower X translation displacement, node 2, m
          5   -1.889E+00                                 F               0         Tower Y translation displacement, node 2, m
          6   -6.192E-02                                 F               0         Tower Z translation displacement, node 2, m
          7    6.403E-01                                 F               0         Tower X translation displacement, node 3, m
          8   -2.429E+00                                 F               0         Tower Y translation displacement, node 3, m
          9   -7.625E-02                                 F               0         Tower Z translation displacement, node 3, m
         10    9.001E-01                                 F               0         Tower X translation displacement, node 4, m
         11   -2.973E+00                                 F               0         Tower Y translation displacement, node 4, m
         12   -9.096E-02                                 F               0         Tower Z translation displacement, node 4, m
         13    1.168E+00                                 F               0         Tower X translation displacement, node 5, m
         14   -3.520E+00                                 F               0         Tower Y translation displacement, node 5, m
         15   -1.060E-01                                 F               0         Tower Z translation displacement, node 5, m
         16    1.442E+00                                 F               0         Tower X translation displacement, node 6, m
         17   -4.071E+00                                 F               0         Tower Y translation displacement, node 6, m
         18   -1.213E-01                                 F               0         Tower Z translation displacement, node 6, m
         19    1.720E+00                                 F               0         Tower X translation displacement, node 7, m
         20   -4.623E+00                                 F               0         Tower Y translation displacement, node 7, m
         21   -1.368E-01                                 F               0         Tower Z translation displacement, node 7, m
         22    2.001E+00                                 F               0         Tower X translation displacement, node 8, m
         23   -5.178E+00                                 F               0         Tower Y translation displacement, node 8, m
         24   -1.524E-01                                 F               0         Tower Z translation displacement, node 8, m
         25    2.284E+00                                 F               0         Tower X translation displacement, node 9, m
         26   -5.734E+00                                 F               0         Tower Y translation displacement, node 9, m
         27   -1.682E-01                                 F               0         Tower Z translation displacement, node 9, m
         28    2.568E+00                                 F               0         Tower X translation displacement, node 10, m
         29   -6.291E+00                                 F               0         Tower Y translation displacement, node 10, m
         30   -1.841E-01                                 F               0         Tower Z translation displacement, node 10, m
         31    2.854E+00                                 F               0         Tower X translation displacement, node 11, m
         32   -6.849E+00                                 F               0         Tower Y translation displacement, node 11, m
         33   -1.999E-01                                 F               0         Tower Z translation displacement, node 11, m
         34    9.998E-01,  7.903E-03, -1.840E-02         F               0         Tower X orientation angle, node 1, rad
         35   -7.101E-03,  9.990E-01,  4.325E-02         F               0         Tower Y orientation angle, node 1, rad
         36    1.873E-02, -4.311E-02,  9.989E-01         F               0         Tower Z orientation angle, node 1, rad
         37    9.998E-01,  7.947E-03, -1.942E-02         F               0         Tower X orientation angle, node 2, rad
         38   -7.093E-03,  9.990E-01,  4.365E-02         F               0         Tower Y orientation angle, node 2, rad
         39    1.975E-02, -4.350E-02,  9.989E-01         F               0         Tower Z orientation angle, node 2, rad
         40    9.998E-01,  7.985E-03, -2.029E-02         F               0         Tower X orientation angle, node 3, rad
         41   -7.086E-03,  9.990E-01,  4.400E-02         F               0         Tower Y orientation angle, node 3, rad
         42    2.062E-02, -4.385E-02,  9.988E-01         F               0         Tower Z orientation angle, node 3, rad
         43    9.997E-01,  8.017E-03, -2.101E-02         F               0         Tower X orientation angle, node 4, rad
         44   -7.080E-03,  9.990E-01,  4.432E-02         F               0         Tower Y orientation angle, node 4, rad
         45    2.134E-02, -4.416E-02,  9.988E-01         F               0         Tower Z orientation angle, node 4, rad
         46    9.997E-01,  8.042E-03, -2.157E-02         F               0         Tower X orientation angle, node 5, rad
         47   -7.074E-03,  9.990E-01,  4.458E-02         F               0         Tower Y orientation angle, node 5, rad
         48    2.191E-02, -4.442E-02,  9.988E-01         F               0         Tower Z orientation angle, node 5, rad
         49    9.997E-01,  8.061E-03, -2.200E-02         F               0         Tower X orientation angle, node 6, rad
         50   -7.069E-03,  9.990E-01,  4.481E-02         F               0         Tower Y orientation angle, node 6, rad
         51    2.234E-02, -4.464E-02,  9.988E-01         F               0         Tower Z orientation angle, node 6, rad
         52    9.997E-01,  8.075E-03, -2.230E-02         F               0         Tower X orientation angle, node 7, rad
         53   -7.065E-03,  9.990E-01,  4.499E-02         F               0         Tower Y orientation angle, node 7, rad
         54    2.264E-02, -4.482E-02,  9.987E-01         F               0         Tower Z orientation angle, node 7, rad
         55    9.997E-01,  8.084E-03, -2.251E-02         F               0         Tower X orientation angle, node 8, rad
         56   -7.062E-03,  9.990E-01,  4.512E-02         F               0         Tower Y orientation angle, node 8, rad
         57    2.285E-02, -4.495E-02,  9.987E-01         F               0         Tower Z orientation angle, node 8, rad
         58    9.997E-01,  8.090E-03, -2.264E-02         F               0         Tower X orientation angle, node 9, rad
         59   -7.060E-03,  9.990E-01,  4.523E-02         F               0         Tower Y orientation angle, node 9, rad
         60    2.298E-02, -4.505E-02,  9.987E-01         F               0         Tower Z orientation angle, node 9, rad
         61    9.997E-01,  8.093E-03, -2.271E-02         F               0         Tower X orientation angle, node 10, rad
         62   -7.058E-03,  9.989E-01,  4.529E-02         F               0         Tower Y orientation angle, node 10, rad
         63    2.305E-02, -4.512E-02,  9.987E-01         F               0         Tower Z orientation angle, node 10, rad
         64    9.997E-01,  8.095E-03, -2.274E-02         F               0         Tower X orientation angle, node 11, rad
         65   -7.058E-03,  9.989E-01,  4.533E-02         F               0         Tower Y orientation angle, node 11, rad
         66    2.308E-02, -4.516E-02,  9.987E-01         F               0         Tower Z orientation angle, node 11, rad
         67    2.551E-06                                 F               0         Tower X translation velocity, node 1, m/s
         68    1.108E-06                                 F               0         Tower Y translation velocity, node 1, m/s
         69    0.000E+00                                 F               0         Tower Z translation velocity, node 1, m/s
         70   -1.432E-06                                 F               0         Tower X translation velocity, node 2, m/s
         71    5.046E-05                                 F               0         Tower Y translation velocity, node 2, m/s
         72    2.222E-06                                 F               0         Tower Z translation velocity, node 2, m/s
         73   -2.070E-05                                 F               0         Tower X translation velocity, node 3, m/s
         74    2.250E-04                                 F               0         Tower Y translation velocity, node 3, m/s
         75    1.025E-05                                 F               0         Tower Z translation velocity, node 3, m/s
         76   -5.312E-05                                 F               0         Tower X translation velocity, node 4, m/s
         77    4.996E-04                                 F               0         Tower Y translation velocity, node 4, m/s
         78    2.303E-05                                 F               0         Tower Z translation velocity, node 4, m/s
         79   -9.794E-05                                 F               0         Tower X translation velocity, node 5, m/s
         80    8.620E-04                                 F               0         Tower Y translation velocity, node 5, m/s
         81    4.008E-05                                 F               0         Tower Z translation velocity, node 5, m/s
         82   -1.542E-04                                 F               0         Tower X translation velocity, node 6, m/s
         83    1.300E-03                                 F               0         Tower Y translation velocity, node 6, m/s
         84    6.086E-05                                 F               0         Tower Z translation velocity, node 6, m/s
         85   -2.202E-04                                 F               0         Tower X translation velocity, node 7, m/s
         86    1.797E-03                                 F               0         Tower Y translation velocity, node 7, m/s
         87    8.459E-05                                 F               0         Tower Z translation velocity, node 7, m/s
         88   -2.952E-04                                 F               0         Tower X translation velocity, node 8, m/s
         89    2.346E-03                                 F               0         Tower Y translation velocity, node 8, m/s
         90    1.110E-04                                 F               0         Tower Z translation velocity, node 8, m/s
         91   -3.779E-04                                 F               0         Tower X translation velocity, node 9, m/s
         92    2.936E-03                                 F               0         Tower Y translation velocity, node 9, m/s
         93    1.395E-04                                 F               0         Tower Z translation velocity, node 9, m/s
         94   -4.662E-04                                 F               0         Tower X translation velocity, node 10, m/s
         95    3.555E-03                                 F               0         Tower Y translation velocity, node 10, m/s
         96    1.695E-04                                 F               0         Tower Z translation velocity, node 10, m/s
         97   -5.582E-04                                 F               0         Tower X translation velocity, node 11, m/s
         98    4.192E-03                                 F               0         Tower Y translation velocity, node 11, m/s
         99    2.004E-04                                 F               0         Tower Z translation velocity, node 11, m/s
        100    3.038E+00                                 F               0         Hub X translation displacement, node 1, m
        101   -7.291E+00                                 F               0         Hub Y translation displacement, node 1, m
        102    3.551E-02                                 F               0         Hub Z translation displacement, node 1, m
        103    9.918E-01,  1.277E-02, -1.270E-01         F               0         Hub X orientation angle, node 1, rad
        104   -6.735E-02, -7.929E-01, -6.057E-01         F               0         Hub Y orientation angle, node 1, rad
        105   -1.084E-01,  6.093E-01, -7.855E-01         F               0         Hub Z orientation angle, node 1, rad
        106    8.868E-01                                 F               0         Hub X rotation velocity, node 1, rad/s
        107    1.141E-02                                 F               0         Hub Y rotation velocity, node 1, rad/s
        108   -1.136E-01                                 F               0         Hub Z rotation velocity, node 1, rad/s
        109    9.934E-01,  3.629E-02, -1.090E-01         F               0         Blade root 1 X orientation angle, node 1, rad
        110   -3.789E-02, -7.921E-01, -6.092E-01         F               0         Blade root 1 Y orientation angle, node 1, rad
        111   -1.084E-01,  6.093E-01, -7.855E-01         F               0         Blade root 1 Z orientation angle, node 1, rad
        112    9.932E-01, -1.465E-02, -1.158E-01         F               0         Blade root 2 X orientation angle, node 1, rad
        113   -3.078E-02,  9.240E-01, -3.811E-01         F               0         Blade root 2 Y orientation angle, node 1, rad
        114    1.125E-01,  3.820E-01,  9.173E-01         F               0         Blade root 2 Z orientation angle, node 1, rad
        115    9.876E-01,  1.666E-02, -1.561E-01         F               0         Blade root 3 X orientation angle, node 1, rad
        116    1.569E-01, -1.308E-01,  9.789E-01         F               0         Blade root 3 Y orientation angle, node 1, rad
        117   -4.108E-03, -9.913E-01, -1.318E-01         F               0         Blade root 3 Z orientation angle, node 1, rad
        118    1.858E+00                                 F               0         Blade 1 X translation displacement, node 1, m
        119   -3.915E+00                                 F               0         Blade 1 Y translation displacement, node 1, m
        120   -9.826E+00                                 F               0         Blade 1 Z translation displacement, node 1, m
        121    1.574E+00                                 F               0         Blade 1 X translation displacement, node 2, m
        122   -3.102E+00                                 F               0         Blade 1 Y translation displacement, node 2, m
        123   -1.220E+01                                 F               0         Blade 1 Z translation displacement, node 2, m
        124   -2.292E+00                                 F               0         Blade 1 X translation displacement, node 3, m
        125    7.957E+00                                 F               0         Blade 1 Y translation displacement, node 3, m
        126   -4.451E+01                                 F               0         Blade 1 Z translation displacement, node 3, m
        127   -3.116E+00                                 F               0         Blade 1 X translation displacement, node 4, m
        128    1.031E+01                                 F               0         Blade 1 Y translation displacement, node 4, m
        129   -5.140E+01                                 F               0         Blade 1 Z translation displacement, node 4, m
        130   -3.939E+00                                 F               0         Blade 1 X translation displacement, node 5, m
        131    1.267E+01                                 F               0         Blade 1 Y translation displacement, node 5, m
        132   -5.828E+01                                 F               0         Blade 1 Z translation displacement, node 5, m
        133   -4.763E+00                                 F               0         Blade 1 X translation displacement, node 6, m
        134    1.503E+01                                 F               0         Blade 1 Y translation displacement, node 6, m
        135   -6.517E+01                                 F               0         Blade 1 Z translation displacement, node 6, m
        136   -5.587E+00                                 F               0         Blade 1 X translation displacement, node 7, m
        137    1.738E+01                                 F               0         Blade 1 Y translation displacement, node 7, m
        138   -7.205E+01                                 F               0         Blade 1 Z translation displacement, node 7, m
        139   -6.410E+00                                 F               0         Blade 1 X translation displacement, node 8, m
        140    1.974E+01                                 F               0         Blade 1 Y translation displacement, node 8, m
        141   -7.894E+01                                 F               0         Blade 1 Z translation displacement, node 8, m
        142   -7.234E+00                                 F               0         Blade 1 X translation displacement, node 9, m
        143    2.210E+01                                 F               0         Blade 1 Y translation displacement, node 9, m
        144   -8.582E+01                                 F               0         Blade 1 Z translation displacement, node 9, m
        145   -8.058E+00                                 F               0         Blade 1 X translation displacement, node 10, m
        146    2.445E+01                                 F               0         Blade 1 Y translation displacement, node 10, m
        147   -9.271E+01                                 F               0         Blade 1 Z translation displacement, node 10, m
        148   -8.881E+00                                 F               0         Blade 1 X translation displacement, node 11, m
        149    2.681E+01                                 F               0         Blade 1 Y translation displacement, node 11, m
        150   -9.959E+01                                 F               0         Blade 1 Z translation displacement, node 11, m
        151   -9.705E+00                                 F               0         Blade 1 X translation displacement, node 12, m
        152    2.917E+01                                 F               0         Blade 1 Y translation displacement, node 12, m
        153   -1.065E+02                                 F               0         Blade 1 Z translation displacement, node 12, m
        154   -1.053E+01                                 F               0         Blade 1 X translation displacement, node 13, m
        155    3.152E+01                                 F               0         Blade 1 Y translation displacement, node 13, m
        156   -1.134E+02                                 F               0         Blade 1 Z translation displacement, node 13, m
        157   -1.135E+01                                 F               0         Blade 1 X translation displacement, node 14, m
        158    3.388E+01                                 F               0         Blade 1 Y translation displacement, node 14, m
        159   -1.202E+02                                 F               0         Blade 1 Z translation displacement, node 14, m
        160   -1.218E+01                                 F               0         Blade 1 X translation displacement, node 15, m
        161    3.623E+01                                 F               0         Blade 1 Y translation displacement, node 15, m
        162   -1.271E+02                                 F               0         Blade 1 Z translation displacement, node 15, m
        163   -1.300E+01                                 F               0         Blade 1 X translation displacement, node 16, m
        164    3.859E+01                                 F               0         Blade 1 Y translation displacement, node 16, m
        165   -1.340E+02                                 F               0         Blade 1 Z translation displacement, node 16, m
        166   -1.382E+01                                 F               0         Blade 1 X translation displacement, node 17, m
        167    4.095E+01                                 F               0         Blade 1 Y translation displacement, node 17, m
        168   -1.409E+02                                 F               0         Blade 1 Z translation displacement, node 17, m
        169   -1.465E+01                                 F               0         Blade 1 X translation displacement, node 18, m
        170    4.330E+01                                 F               0         Blade 1 Y translation displacement, node 18, m
        171   -1.478E+02                                 F               0         Blade 1 Z translation displacement, node 18, m
        172   -1.547E+01                                 F               0         Blade 1 X translation displacement, node 19, m
        173    4.566E+01                                 F               0         Blade 1 Y translation displacement, node 19, m
        174   -1.547E+02                                 F               0         Blade 1 Z translation displacement, node 19, m
        175   -1.629E+01                                 F               0         Blade 1 X translation displacement, node 20, m
        176    4.802E+01                                 F               0         Blade 1 Y translation displacement, node 20, m
        177   -1.616E+02                                 F               0         Blade 1 Z translation displacement, node 20, m
        178   -1.712E+01                                 F               0         Blade 1 X translation displacement, node 21, m
        179    5.037E+01                                 F               0         Blade 1 Y translation displacement, node 21, m
        180   -1.684E+02                                 F               0         Blade 1 Z translation displacement, node 21, m
        181   -1.794E+01                                 F               0         Blade 1 X translation displacement, node 22, m
        182    5.273E+01                                 F               0         Blade 1 Y translation displacement, node 22, m
        183   -1.753E+02                                 F               0         Blade 1 Z translation displacement, node 22, m
        184   -1.877E+01                                 F               0         Blade 1 X translation displacement, node 23, m
        185    5.509E+01                                 F               0         Blade 1 Y translation displacement, node 23, m
        186   -1.822E+02                                 F               0         Blade 1 Z translation displacement, node 23, m
        187   -1.959E+01                                 F               0         Blade 1 X translation displacement, node 24, m
        188    5.744E+01                                 F               0         Blade 1 Y translation displacement, node 24, m
        189   -1.891E+02                                 F               0         Blade 1 Z translation displacement, node 24, m
        190   -2.041E+01                                 F               0         Blade 1 X translation displacement, node 25, m
        191    5.980E+01                                 F               0         Blade 1 Y translation displacement, node 25, m
        192   -1.960E+02                                 F               0         Blade 1 Z translation displacement, node 25, m
        193   -2.124E+01                                 F               0         Blade 1 X translation displacement, node 26, m
        194    6.216E+01                                 F               0         Blade 1 Y translation displacement, node 26, m
        195   -2.029E+02                                 F               0         Blade 1 Z translation displacement, node 26, m
        196   -2.206E+01                                 F               0         Blade 1 X translation displacement, node 27, m
        197    6.451E+01                                 F               0         Blade 1 Y translation displacement, node 27, m
        198   -2.097E+02                                 F               0         Blade 1 Z translation displacement, node 27, m
        199   -2.276E+01                                 F               0         Blade 1 X translation displacement, node 28, m
        200    6.651E+01                                 F               0         Blade 1 Y translation displacement, node 28, m
        201   -2.156E+02                                 F               0         Blade 1 Z translation displacement, node 28, m
        202    9.014E-01,  3.935E-01,  1.808E-01         F               0         Blade 1 X orientation angle, node 1, rad
        203    4.193E-01, -6.884E-01, -5.918E-01         F               0         Blade 1 Y orientation angle, node 1, rad
        204   -1.084E-01,  6.093E-01, -7.855E-01         F               0         Blade 1 Z orientation angle, node 1, rad
        205    9.014E-01,  3.935E-01,  1.808E-01         F               0         Blade 1 X orientation angle, node 2, rad
        206    4.193E-01, -6.884E-01, -5.918E-01         F               0         Blade 1 Y orientation angle, node 2, rad
        207   -1.084E-01,  6.093E-01, -7.855E-01         F               0         Blade 1 Z orientation angle, node 2, rad
        208    9.751E-01,  2.191E-01,  3.537E-02         F               0         Blade 1 X orientation angle, node 3, rad
        209    1.937E-01, -7.621E-01, -6.178E-01         F               0         Blade 1 Y orientation angle, node 3, rad
        210   -1.084E-01,  6.093E-01, -7.855E-01         F               0         Blade 1 Z orientation angle, node 3, rad
        211    9.824E-01,  1.868E-01,  9.254E-03         F               0         Blade 1 X orientation angle, node 4, rad
        212    1.523E-01, -7.707E-01, -6.188E-01         F               0         Blade 1 Y orientation angle, node 4, rad
        213   -1.084E-01,  6.093E-01, -7.855E-01         F               0         Blade 1 Z orientation angle, node 4, rad
        214    9.869E-01,  1.611E-01, -1.127E-02         F               0         Blade 1 X orientation angle, node 5, rad
        215    1.197E-01, -7.764E-01, -6.187E-01         F               0         Blade 1 Y orientation angle, node 5, rad
        216   -1.084E-01,  6.093E-01, -7.855E-01         F               0         Blade 1 Z orientation angle, node 5, rad
        217    9.897E-01,  1.405E-01, -2.767E-02         F               0         Blade 1 X orientation angle, node 6, rad
        218    9.347E-02, -7.804E-01, -6.182E-01         F               0         Blade 1 Y orientation angle, node 6, rad
        219   -1.084E-01,  6.093E-01, -7.855E-01         F               0         Blade 1 Z orientation angle, node 6, rad
        220    9.915E-01,  1.234E-01, -4.115E-02         F               0         Blade 1 X orientation angle, node 7, rad
        221    7.186E-02, -7.833E-01, -6.175E-01         F               0         Blade 1 Y orientation angle, node 7, rad
        222   -1.084E-01,  6.093E-01, -7.855E-01         F               0         Blade 1 Z orientation angle, node 7, rad
        223    9.926E-01,  1.092E-01, -5.235E-02         F               0         Blade 1 X orientation angle, node 8, rad
        224    5.385E-02, -7.854E-01, -6.166E-01         F               0         Blade 1 Y orientation angle, node 8, rad
        225   -1.084E-01,  6.093E-01, -7.855E-01         F               0         Blade 1 Z orientation angle, node 8, rad
        226    9.934E-01,  9.709E-02, -6.182E-02         F               0         Blade 1 X orientation angle, node 9, rad
        227    3.860E-02, -7.870E-01, -6.157E-01         F               0         Blade 1 Y orientation angle, node 9, rad