
Linearized model: Predictions were generated on 24-Jan-2024 at 11:24:37 using OpenFAST, compiled as a 64-bit application using single precision at commit v3.5.1
 linked with  NWTC Subroutine Library; ElastoDyn; InflowWind; AeroDyn; ServoDyn; HydroDyn; MAP++ (<1.20.10>, <Oct-20-2023>)

Description from the FAST input file: CCT-9 Campign 4 model. Input files to be run with OpenFAST 3.5.0. GitHub branch from Lu Wang (https://github.com/luwang00/openfast/tree/dev) compiled on March 7, 2023.

Simulation information:
   Simulation time:                   502.2250 s
   Rotor Speed:                         0.8941 rad/s
   Azimuth:                             3.5292 rad
   Wind Speed:                         10.0000 m/s
   Number of continuous states:         0
   Number of discrete states:           0
   Number of constraint states:         0
   Number of inputs:                 1746
   Number of outputs:                   4
   Jacobians included in this file?    No

Order of inputs:
     Column   Operating Point                     Rotating Frame? Derivative Order Description
   ---------- ---------------                     --------------- ---------------- -----------
          1    1.535E-01                                 F               0         Tower X translation displacement, node 1, m
          2   -1.355E+00                                 F               0         Tower Y translation displacement, node 1, m
          3   -4.807E-02                                 F               0         Tower Z translation displacement, node 1, m
          4    3.902E-01                                 F               0         Tower X translation displacement, node 2, m
          5   -1.889E+00                                 F               0         Tower Y translation displacement, node 2, m
          6   -6.192E-02                                 F               0         Tower Z translation displacement, node 2, m
          7    6.403E-01                                 F               0         Tower X translation displacement, node 3, m
          8   -2.429E+00                                 F               0         Tower Y translation displacement, node 3, m
          9   -7.625E-02                                 F               0         Tower Z translation displacement, node 3, m
         10    9.001E-01                                 F               0         Tower X translation displacement, node 4, m
         11   -2.973E+00                                 F               0         Tower Y translation displacement, node 4, m
         12   -9.096E-02                                 F               0         Tower Z translation displacement, node 4, m
         13    1.168E+00                                 F               0         Tower X translation displacement, node 5, m
         14   -3.520E+00                                 F               0         Tower Y translation displacement, node 5, m
         15   -1.060E-01                                 F               0         Tower Z translation displacement, node 5, m
         16    1.442E+00                                 F               0         Tower X translation displacement, node 6, m
         17   -4.071E+00                                 F               0         Tower Y translation displacement, node 6, m
         18   -1.213E-01                                 F               0         Tower Z translation displacement, node 6, m
         19    1.720E+00                                 F               0         Tower X translation displacement, node 7, m
         20   -4.624E+00                                 F               0         Tower Y translation displacement, node 7, m
         21   -1.368E-01                                 F               0         Tower Z translation displacement, node 7, m
         22    2.001E+00                                 F               0         Tower X translation displacement, node 8, m
         23   -5.178E+00                                 F               0         Tower Y translation displacement, node 8, m
         24   -1.525E-01                                 F               0         Tower Z translation displacement, node 8, m
         25    2.284E+00                                 F               0         Tower X translation displacement, node 9, m
         26   -5.735E+00                                 F               0         Tower Y translation displacement, node 9, m
         27   -1.682E-01                                 F               0         Tower Z translation displacement, node 9, m
         28    2.569E+00                                 F               0         Tower X translation displacement, node 10, m
         29   -6.292E+00                                 F               0         Tower Y translation displacement, node 10, m
         30   -1.841E-01                                 F               0         Tower Z translation displacement, node 10, m
         31    2.854E+00                                 F               0         Tower X translation displacement, node 11, m
         32   -6.850E+00                                 F               0         Tower Y translation displacement, node 11, m
         33   -2.000E-01                                 F               0         Tower Z translation displacement, node 11, m
         34    9.998E-01,  7.902E-03, -1.840E-02         F               0         Tower X orientation angle, node 1, rad
         35   -7.100E-03,  9.990E-01,  4.325E-02         F               0         Tower Y orientation angle, node 1, rad
         36    1.873E-02, -4.311E-02,  9.989E-01         F               0         Tower Z orientation angle, node 1, rad
         37    9.998E-01,  7.946E-03, -1.942E-02         F               0         Tower X orientation angle, node 2, rad
         38   -7.093E-03,  9.990E-01,  4.365E-02         F               0         Tower Y orientation angle, node 2, rad
         39    1.975E-02, -4.350E-02,  9.989E-01         F               0         Tower Z orientation angle, node 2, rad
         40    9.998E-01,  7.985E-03, -2.029E-02         F               0         Tower X orientation angle, node 3, rad
         41   -7.085E-03,  9.990E-01,  4.401E-02         F               0         Tower Y orientation angle, node 3, rad
         42    2.062E-02, -4.385E-02,  9.988E-01         F               0         Tower Z orientation angle, node 3, rad
         43    9.997E-01,  8.016E-03, -2.101E-02         F               0         Tower X orientation angle, node 4, rad
         44   -7.079E-03,  9.990E-01,  4.432E-02         F               0         Tower Y orientation angle, node 4, rad
         45    2.134E-02, -4.416E-02,  9.988E-01         F               0         Tower Z orientation angle, node 4, rad
         46    9.997E-01,  8.041E-03, -2.157E-02         F               0         Tower X orientation angle, node 5, rad
         47   -7.073E-03,  9.990E-01,  4.459E-02         F               0         Tower Y orientation angle, node 5, rad
         48    2.191E-02, -4.443E-02,  9.988E-01         F               0         Tower Z orientation angle, node 5, rad
         49    9.997E-01,  8.061E-03, -2.200E-02         F               0         Tower X orientation angle, node 6, rad
         50   -7.068E-03,  9.990E-01,  4.482E-02         F               0         Tower Y orientation angle, node 6, rad
         51    2.234E-02, -4.465E-02,  9.988E-01         F               0         Tower Z orientation angle, node 6, rad
         52    9.997E-01,  8.074E-03, -2.231E-02         F               0         Tower X orientation angle, node 7, rad
         53   -7.064E-03,  9.990E-01,  4.500E-02         F               0         Tower Y orientation angle, node 7, rad
         54    2.265E-02, -4.483E-02,  9.987E-01         F               0         Tower Z orientation angle, node 7, rad
         55    9.997E-01,  8.084E-03, -2.251E-02         F               0         Tower X orientation angle, node 8, rad
         56   -7.061E-03,  9.990E-01,  4.514E-02         F               0         Tower Y orientation angle, node 8, rad
         57    2.285E-02, -4.496E-02,  9.987E-01         F               0         Tower Z orientation angle, node 8, rad
         58    9.997E-01,  8.089E-03, -2.264E-02         F               0         Tower X orientation angle, node 9, rad
         59   -7.059E-03,  9.990E-01,  4.524E-02         F               0         Tower Y orientation angle, node 9, rad
         60    2.298E-02, -4.507E-02,  9.987E-01         F               0         Tower Z orientation angle, node 9, rad
         61    9.997E-01,  8.093E-03, -2.271E-02         F               0         Tower X orientation angle, node 10, rad
         62   -7.057E-03,  9.989E-01,  4.531E-02         F               0         Tower Y orientation angle, node 10, rad
         63    2.305E-02, -4.513E-02,  9.987E-01         F               0         Tower Z orientation angle, node 10, rad
         64    9.997E-01,  8.094E-03, -2.274E-02         F               0         Tower X orientation angle, node 11, rad
         65   -7.057E-03,  9.989E-01,  4.534E-02         F               0         Tower Y orientation angle, node 11, rad
         66    2.308E-02, -4.517E-02,  9.987E-01         F               0         Tower Z orientation angle, node 11, rad
         67    2.372E-06                                 F               0         Tower X translation velocity, node 1, m/s
         68    1.030E-06                                 F               0         Tower Y translation velocity, node 1, m/s
         69    0.000E+00                                 F               0         Tower Z translation velocity, node 1, m/s
         70   -4.626E-06                                 F               0         Tower X translation velocity, node 2, m/s
         71    4.442E-05                                 F               0         Tower Y translation velocity, node 2, m/s
         72    2.021E-06                                 F               0         Tower Z translation velocity, node 2, m/s
         73   -3.407E-05                                 F               0         Tower X translation velocity, node 3, m/s
         74    1.978E-04                                 F               0         Tower Y translation velocity, node 3, m/s
         75    9.329E-06                                 F               0         Tower Z translation velocity, node 3, m/s
         76   -8.193E-05                                 F               0         Tower X translation velocity, node 4, m/s
         77    4.393E-04                                 F               0         Tower Y translation velocity, node 4, m/s
         78    2.098E-05                                 F               0         Tower Z translation velocity, node 4, m/s
         79   -1.464E-04                                 F               0         Tower X translation velocity, node 5, m/s
         80    7.581E-04                                 F               0         Tower Y translation velocity, node 5, m/s
         81    3.652E-05                                 F               0         Tower Z translation velocity, node 5, m/s
         82   -2.256E-04                                 F               0         Tower X translation velocity, node 6, m/s
         83    1.143E-03                                 F               0         Tower Y translation velocity, node 6, m/s
         84    5.547E-05                                 F               0         Tower Z translation velocity, node 6, m/s
         85   -3.166E-04                                 F               0         Tower X translation velocity, node 7, m/s
         86    1.581E-03                                 F               0         Tower Y translation velocity, node 7, m/s
         87    7.711E-05                                 F               0         Tower Z translation velocity, node 7, m/s
         88   -4.184E-04                                 F               0         Tower X translation velocity, node 8, m/s
         89    2.065E-03                                 F               0         Tower Y translation velocity, node 8, m/s
         90    1.012E-04                                 F               0         Tower Z translation velocity, node 8, m/s
         91   -5.289E-04                                 F               0         Tower X translation velocity, node 9, m/s
         92    2.585E-03                                 F               0         Tower Y translation velocity, node 9, m/s
         93    1.271E-04                                 F               0         Tower Z translation velocity, node 9, m/s
         94   -6.457E-04                                 F               0         Tower X translation velocity, node 10, m/s
         95    3.130E-03                                 F               0         Tower Y translation velocity, node 10, m/s
         96    1.545E-04                                 F               0         Tower Z translation velocity, node 10, m/s
         97   -7.665E-04                                 F               0         Tower X translation velocity, node 11, m/s
         98    3.691E-03                                 F               0         Tower Y translation velocity, node 11, m/s
         99    1.826E-04                                 F               0         Tower Z translation velocity, node 11, m/s
        100    3.038E+00                                 F               0         Hub X translation displacement, node 1, m
        101   -7.292E+00                                 F               0         Hub Y translation displacement, node 1, m
        102    3.548E-02                                 F               0         Hub Z translation displacement, node 1, m
        103    9.918E-01,  1.277E-02, -1.270E-01         F               0         Hub X orientation angle, node 1, rad
        104   -4.164E-02, -9.082E-01, -4.165E-01         F               0         Hub Y orientation angle, node 1, rad
        105   -1.207E-01,  4.183E-01, -9.002E-01         F               0         Hub Z orientation angle, node 1, rad
        106    8.868E-01                                 F               0         Hub X rotation velocity, node 1, rad/s
        107    1.141E-02                                 F               0         Hub Y rotation velocity, node 1, rad/s
        108   -1.136E-01                                 F               0         Hub Z rotation velocity, node 1, rad/s
        109    9.926E-01,  3.971E-02, -1.146E-01         F               0         Blade root 1 X orientation angle, node 1, rad
        110   -1.219E-02, -9.074E-01, -4.201E-01         F               0         Blade root 1 Y orientation angle, node 1, rad
        111   -1.207E-01,  4.183E-01, -9.002E-01         F               0         Blade root 1 Z orientation angle, node 1, rad
        112    9.939E-01, -1.145E-02, -1.100E-01         F               0         Blade root 2 X orientation angle, node 1, rad
        113   -5.422E-02,  8.164E-01, -5.749E-01         F               0         Blade root 2 Y orientation angle, node 1, rad
        114    9.639E-02,  5.773E-01,  8.108E-01         F               0         Blade root 2 Z orientation angle, node 1, rad
        115    9.877E-01,  1.004E-02, -1.563E-01         F               0         Blade root 3 X orientation angle, node 1, rad
        116    1.547E-01,  9.214E-02,  9.837E-01         F               0         Blade root 3 Y orientation angle, node 1, rad
        117    2.428E-02, -9.957E-01,  8.945E-02         F               0         Blade root 3 Z orientation angle, node 1, rad
        118    1.790E+00                                 F               0         Blade 1 X translation displacement, node 1, m
        119   -4.974E+00                                 F               0         Blade 1 Y translation displacement, node 1, m
        120   -1.046E+01                                 F               0         Blade 1 Z translation displacement, node 1, m
        121    1.490E+00                                 F               0         Blade 1 X translation displacement, node 2, m
        122   -4.416E+00                                 F               0         Blade 1 Y translation displacement, node 2, m
        123   -1.299E+01                                 F               0         Blade 1 Z translation displacement, node 2, m
        124   -2.598E+00                                 F               0         Blade 1 X translation displacement, node 3, m
        125    3.178E+00                                 F               0         Blade 1 Y translation displacement, node 3, m
        126   -4.739E+01                                 F               0         Blade 1 Z translation displacement, node 3, m
        127   -3.469E+00                                 F               0         Blade 1 X translation displacement, node 4, m
        128    4.796E+00                                 F               0         Blade 1 Y translation displacement, node 4, m
        129   -5.471E+01                                 F               0         Blade 1 Z translation displacement, node 4, m
        130   -4.340E+00                                 F               0         Blade 1 X translation displacement, node 5, m
        131    6.415E+00                                 F               0         Blade 1 Y translation displacement, node 5, m
        132   -6.204E+01                                 F               0         Blade 1 Z translation displacement, node 5, m
        133   -5.211E+00                                 F               0         Blade 1 X translation displacement, node 6, m
        134    8.033E+00                                 F               0         Blade 1 Y translation displacement, node 6, m
        135   -6.937E+01                                 F               0         Blade 1 Z translation displacement, node 6, m
        136   -6.082E+00                                 F               0         Blade 1 X translation displacement, node 7, m
        137    9.650E+00                                 F               0         Blade 1 Y translation displacement, node 7, m
        138   -7.670E+01                                 F               0         Blade 1 Z translation displacement, node 7, m
        139   -6.953E+00                                 F               0         Blade 1 X translation displacement, node 8, m
        140    1.127E+01                                 F               0         Blade 1 Y translation displacement, node 8, m
        141   -8.403E+01                                 F               0         Blade 1 Z translation displacement, node 8, m
        142   -7.824E+00                                 F               0         Blade 1 X translation displacement, node 9, m
        143    1.289E+01                                 F               0         Blade 1 Y translation displacement, node 9, m
        144   -9.136E+01                                 F               0         Blade 1 Z translation displacement, node 9, m
        145   -8.695E+00                                 F               0         Blade 1 X translation displacement, node 10, m
        146    1.450E+01                                 F               0         Blade 1 Y translation displacement, node 10, m
        147   -9.868E+01                                 F               0         Blade 1 Z translation displacement, node 10, m
        148   -9.566E+00                                 F               0         Blade 1 X translation displacement, node 11, m
        149    1.612E+01                                 F               0         Blade 1 Y translation displacement, node 11, m
        150   -1.060E+02                                 F               0         Blade 1 Z translation displacement, node 11, m
        151   -1.044E+01                                 F               0         Blade 1 X translation displacement, node 12, m
        152    1.774E+01                                 F               0         Blade 1 Y translation displacement, node 12, m
        153   -1.133E+02                                 F               0         Blade 1 Z translation displacement, node 12, m
        154   -1.131E+01                                 F               0         Blade 1 X translation displacement, node 13, m
        155    1.936E+01                                 F               0         Blade 1 Y translation displacement, node 13, m
        156   -1.207E+02                                 F               0         Blade 1 Z translation displacement, node 13, m
        157   -1.218E+01                                 F               0         Blade 1 X translation displacement, node 14, m
        158    2.098E+01                                 F               0         Blade 1 Y translation displacement, node 14, m
        159   -1.280E+02                                 F               0         Blade 1 Z translation displacement, node 14, m
        160   -1.305E+01                                 F               0         Blade 1 X translation displacement, node 15, m
        161    2.259E+01                                 F               0         Blade 1 Y translation displacement, node 15, m
        162   -1.353E+02                                 F               0         Blade 1 Z translation displacement, node 15, m
        163   -1.392E+01                                 F               0         Blade 1 X translation displacement, node 16, m
        164    2.421E+01                                 F               0         Blade 1 Y translation displacement, node 16, m
        165   -1.427E+02                                 F               0         Blade 1 Z translation displacement, node 16, m
        166   -1.479E+01                                 F               0         Blade 1 X translation displacement, node 17, m
        167    2.583E+01                                 F               0         Blade 1 Y translation displacement, node 17, m
        168   -1.500E+02                                 F               0         Blade 1 Z translation displacement, node 17, m
        169   -1.566E+01                                 F               0         Blade 1 X translation displacement, node 18, m
        170    2.745E+01                                 F               0         Blade 1 Y translation displacement, node 18, m
        171   -1.573E+02                                 F               0         Blade 1 Z translation displacement, node 18, m
        172   -1.653E+01                                 F               0         Blade 1 X translation displacement, node 19, m
        173    2.907E+01                                 F               0         Blade 1 Y translation displacement, node 19, m
        174   -1.646E+02                                 F               0         Blade 1 Z translation displacement, node 19, m
        175   -1.740E+01                                 F               0         Blade 1 X translation displacement, node 20, m
        176    3.069E+01                                 F               0         Blade 1 Y translation displacement, node 20, m
        177   -1.720E+02                                 F               0         Blade 1 Z translation displacement, node 20, m
        178   -1.828E+01                                 F               0         Blade 1 X translation displacement, node 21, m
        179    3.230E+01                                 F               0         Blade 1 Y translation displacement, node 21, m
        180   -1.793E+02                                 F               0         Blade 1 Z translation displacement, node 21, m
        181   -1.915E+01                                 F               0         Blade 1 X translation displacement, node 22, m
        182    3.392E+01                                 F               0         Blade 1 Y translation displacement, node 22, m
        183   -1.866E+02                                 F               0         Blade 1 Z translation displacement, node 22, m
        184   -2.002E+01                                 F               0         Blade 1 X translation displacement, node 23, m
        185    3.554E+01                                 F               0         Blade 1 Y translation displacement, node 23, m
        186   -1.940E+02                                 F               0         Blade 1 Z translation displacement, node 23, m
        187   -2.089E+01                                 F               0         Blade 1 X translation displacement, node 24, m
        188    3.716E+01                                 F               0         Blade 1 Y translation displacement, node 24, m
        189   -2.013E+02                                 F               0         Blade 1 Z translation displacement, node 24, m
        190   -2.176E+01                                 F               0         Blade 1 X translation displacement, node 25, m
        191    3.878E+01                                 F               0         Blade 1 Y translation displacement, node 25, m
        192   -2.086E+02                                 F               0         Blade 1 Z translation displacement, node 25, m
        193   -2.263E+01                                 F               0         Blade 1 X translation displacement, node 26, m
        194    4.039E+01                                 F               0         Blade 1 Y translation displacement, node 26, m
        195   -2.159E+02                                 F               0         Blade 1 Z translation displacement, node 26, m
        196   -2.350E+01                                 F               0         Blade 1 X translation displacement, node 27, m
        197    4.201E+01                                 F               0         Blade 1 Y translation displacement, node 27, m
        198   -2.233E+02                                 F               0         Blade 1 Z translation displacement, node 27, m
        199   -2.424E+01                                 F               0         Blade 1 X translation displacement, node 28, m
        200    4.338E+01                                 F               0         Blade 1 Y translation displacement, node 28, m
        201   -2.295E+02                                 F               0         Blade 1 Z translation displacement, node 28, m
        202    8.890E-01,  4.491E-01,  8.956E-02         F               0         Blade 1 X orientation angle, node 1, rad
        203    4.418E-01, -7.895E-01, -4.261E-01         F               0         Blade 1 Y orientation angle, node 1, rad
        204   -1.207E-01,  4.183E-01, -9.002E-01         F               0         Blade 1 Z orientation angle, node 1, rad
        205    8.890E-01,  4.491E-01,  8.956E-02         F               0         Blade 1 X orientation angle, node 2, rad
        206    4.418E-01, -7.895E-01, -4.261E-01         F               0         Blade 1 Y orientation angle, node 2, rad
        207   -1.207E-01,  4.183E-01, -9.002E-01         F               0         Blade 1 Z orientation angle, node 2, rad
        208    9.683E-01,  2.492E-01, -1.398E-02         F               0         Blade 1 X orientation angle, node 3, rad
        209    2.185E-01, -8.734E-01, -4.352E-01         F               0         Blade 1 Y orientation angle, node 3, rad
        210   -1.207E-01,  4.183E-01, -9.002E-01         F               0         Blade 1 Z orientation angle, node 3, rad
        211    9.767E-01,  2.121E-01, -3.234E-02         F               0         Blade 1 X orientation angle, node 4, rad
        212    1.774E-01, -8.832E-01, -4.342E-01         F               0         Blade 1 Y orientation angle, node 4, rad
        213   -1.207E-01,  4.183E-01, -9.002E-01         F               0         Blade 1 Z orientation angle, node 4, rad
        214    9.821E-01,  1.827E-01, -4.672E-02         F               0         Blade 1 X orientation angle, node 5, rad
        215    1.449E-01, -8.897E-01, -4.329E-01         F               0         Blade 1 Y orientation angle, node 5, rad
        216   -1.207E-01,  4.183E-01, -9.002E-01         F               0         Blade 1 Z orientation angle, node 5, rad
        217    9.856E-01,  1.591E-01, -5.819E-02         F               0         Blade 1 X orientation angle, node 6, rad
        218    1.188E-01, -8.943E-01, -4.315E-01         F               0         Blade 1 Y orientation angle, node 6, rad
        219   -1.207E-01,  4.183E-01, -9.002E-01         F               0         Blade 1 Z orientation angle, node 6, rad
        220    9.879E-01,  1.395E-01, -6.758E-02         F               0         Blade 1 X orientation angle, node 7, rad
        221    9.732E-02, -8.975E-01, -4.301E-01         F               0         Blade 1 Y orientation angle, node 7, rad
        222   -1.207E-01,  4.183E-01, -9.002E-01         F               0         Blade 1 Z orientation angle, node 7, rad
        223    9.895E-01,  1.232E-01, -7.538E-02         F               0         Blade 1 X orientation angle, node 8, rad
        224    7.937E-02, -8.999E-01, -4.288E-01         F               0         Blade 1 Y orientation angle, node 8, rad
        225   -1.207E-01,  4.183E-01, -9.002E-01         F               0         Blade 1 Z orientation angle, node 8, rad
        226    9.906E-01,  1.094E-01, -8.196E-02         F               0         Blade 1 X orientation angle, node 9, rad
        227    6.417E-02, -9.017E-01, -4.276E-01         F               0         Blade 1 Y orientation angle, node 9, rad