
Linearized model: Predictions were generated on 24-Jan-2024 at 11:24:37 using OpenFAST, compiled as a 64-bit application using single precision at commit v3.5.1
 linked with  NWTC Subroutine Library; ElastoDyn; InflowWind; AeroDyn; ServoDyn; HydroDyn; MAP++ (<1.20.10>, <Oct-20-2023>)

Description from the FAST input file: CCT-9 Campign 4 model. Input files to be run with OpenFAST 3.5.0. GitHub branch from Lu Wang (https://github.com/luwang00/openfast/tree/dev) compiled on March 7, 2023.

Simulation information:
   Simulation time:                   506.4250 s
   Rotor Speed:                         0.8937 rad/s
   Azimuth:                             1.0005 rad
   Wind Speed:                         10.0000 m/s
   Number of continuous states:         0
   Number of discrete states:           0
   Number of constraint states:         0
   Number of inputs:                 1746
   Number of outputs:                   4
   Jacobians included in this file?    No

Order of inputs:
     Column   Operating Point                     Rotating Frame? Derivative Order Description
   ---------- ---------------                     --------------- ---------------- -----------
          1    1.535E-01                                 F               0         Tower X translation displacement, node 1, m
          2   -1.355E+00                                 F               0         Tower Y translation displacement, node 1, m
          3   -4.807E-02                                 F               0         Tower Z translation displacement, node 1, m
          4    3.903E-01                                 F               0         Tower X translation displacement, node 2, m
          5   -1.889E+00                                 F               0         Tower Y translation displacement, node 2, m
          6   -6.192E-02                                 F               0         Tower Z translation displacement, node 2, m
          7    6.403E-01                                 F               0         Tower X translation displacement, node 3, m
          8   -2.429E+00                                 F               0         Tower Y translation displacement, node 3, m
          9   -7.624E-02                                 F               0         Tower Z translation displacement, node 3, m
         10    9.003E-01                                 F               0         Tower X translation displacement, node 4, m
         11   -2.973E+00                                 F               0         Tower Y translation displacement, node 4, m
         12   -9.095E-02                                 F               0         Tower Z translation displacement, node 4, m
         13    1.168E+00                                 F               0         Tower X translation displacement, node 5, m
         14   -3.520E+00                                 F               0         Tower Y translation displacement, node 5, m
         15   -1.060E-01                                 F               0         Tower Z translation displacement, node 5, m
         16    1.442E+00                                 F               0         Tower X translation displacement, node 6, m
         17   -4.070E+00                                 F               0         Tower Y translation displacement, node 6, m
         18   -1.213E-01                                 F               0         Tower Z translation displacement, node 6, m
         19    1.720E+00                                 F               0         Tower X translation displacement, node 7, m
         20   -4.622E+00                                 F               0         Tower Y translation displacement, node 7, m
         21   -1.367E-01                                 F               0         Tower Z translation displacement, node 7, m
         22    2.002E+00                                 F               0         Tower X translation displacement, node 8, m
         23   -5.176E+00                                 F               0         Tower Y translation displacement, node 8, m
         24   -1.524E-01                                 F               0         Tower Z translation displacement, node 8, m
         25    2.285E+00                                 F               0         Tower X translation displacement, node 9, m
         26   -5.732E+00                                 F               0         Tower Y translation displacement, node 9, m
         27   -1.682E-01                                 F               0         Tower Z translation displacement, node 9, m
         28    2.570E+00                                 F               0         Tower X translation displacement, node 10, m
         29   -6.289E+00                                 F               0         Tower Y translation displacement, node 10, m
         30   -1.840E-01                                 F               0         Tower Z translation displacement, node 10, m
         31    2.855E+00                                 F               0         Tower X translation displacement, node 11, m
         32   -6.846E+00                                 F               0         Tower Y translation displacement, node 11, m
         33   -1.999E-01                                 F               0         Tower Z translation displacement, node 11, m
         34    9.998E-01,  7.903E-03, -1.840E-02         F               0         Tower X orientation angle, node 1, rad
         35   -7.101E-03,  9.990E-01,  4.325E-02         F               0         Tower Y orientation angle, node 1, rad
         36    1.873E-02, -4.311E-02,  9.989E-01         F               0         Tower Z orientation angle, node 1, rad
         37    9.998E-01,  7.947E-03, -1.942E-02         F               0         Tower X orientation angle, node 2, rad
         38   -7.093E-03,  9.990E-01,  4.364E-02         F               0         Tower Y orientation angle, node 2, rad
         39    1.975E-02, -4.349E-02,  9.989E-01         F               0         Tower Z orientation angle, node 2, rad
         40    9.998E-01,  7.985E-03, -2.030E-02         F               0         Tower X orientation angle, node 3, rad
         41   -7.086E-03,  9.990E-01,  4.399E-02         F               0         Tower Y orientation angle, node 3, rad
         42    2.063E-02, -4.384E-02,  9.988E-01         F               0         Tower Z orientation angle, node 3, rad
         43    9.997E-01,  8.017E-03, -2.102E-02         F               0         Tower X orientation angle, node 4, rad
         44   -7.080E-03,  9.990E-01,  4.430E-02         F               0         Tower Y orientation angle, node 4, rad
         45    2.135E-02, -4.414E-02,  9.988E-01         F               0         Tower Z orientation angle, node 4, rad
         46    9.997E-01,  8.042E-03, -2.158E-02         F               0         Tower X orientation angle, node 5, rad
         47   -7.074E-03,  9.990E-01,  4.456E-02         F               0         Tower Y orientation angle, node 5, rad
         48    2.192E-02, -4.440E-02,  9.988E-01         F               0         Tower Z orientation angle, node 5, rad
         49    9.997E-01,  8.061E-03, -2.202E-02         F               0         Tower X orientation angle, node 6, rad
         50   -7.069E-03,  9.990E-01,  4.478E-02         F               0         Tower Y orientation angle, node 6, rad
         51    2.236E-02, -4.462E-02,  9.988E-01         F               0         Tower Z orientation angle, node 6, rad
         52    9.997E-01,  8.075E-03, -2.232E-02         F               0         Tower X orientation angle, node 7, rad
         53   -7.065E-03,  9.990E-01,  4.496E-02         F               0         Tower Y orientation angle, node 7, rad
         54    2.266E-02, -4.479E-02,  9.987E-01         F               0         Tower Z orientation angle, node 7, rad
         55    9.997E-01,  8.085E-03, -2.253E-02         F               0         Tower X orientation angle, node 8, rad
         56   -7.062E-03,  9.990E-01,  4.510E-02         F               0         Tower Y orientation angle, node 8, rad
         57    2.287E-02, -4.492E-02,  9.987E-01         F               0         Tower Z orientation angle, node 8, rad
         58    9.997E-01,  8.090E-03, -2.266E-02         F               0         Tower X orientation angle, node 9, rad
         59   -7.060E-03,  9.990E-01,  4.520E-02         F               0         Tower Y orientation angle, node 9, rad
         60    2.300E-02, -4.502E-02,  9.987E-01         F               0         Tower Z orientation angle, node 9, rad
         61    9.997E-01,  8.094E-03, -2.273E-02         F               0         Tower X orientation angle, node 10, rad
         62   -7.058E-03,  9.990E-01,  4.526E-02         F               0         Tower Y orientation angle, node 10, rad
         63    2.307E-02, -4.509E-02,  9.987E-01         F               0         Tower Z orientation angle, node 10, rad
         64    9.997E-01,  8.095E-03, -2.276E-02         F               0         Tower X orientation angle, node 11, rad
         65   -7.058E-03,  9.989E-01,  4.530E-02         F               0         Tower Y orientation angle, node 11, rad
         66    2.310E-02, -4.512E-02,  9.987E-01         F               0         Tower Z orientation angle, node 11, rad
         67   -3.053E-06                                 F               0         Tower X translation velocity, node 1, m/s
         68   -1.326E-06                                 F               0         Tower Y translation velocity, node 1, m/s
         69    0.000E+00                                 F               0         Tower Z translation velocity, node 1, m/s
         70   -4.289E-06                                 F               0         Tower X translation velocity, node 2, m/s
         71   -3.554E-05                                 F               0         Tower Y translation velocity, node 2, m/s
         72   -1.462E-06                                 F               0         Tower Z translation velocity, node 2, m/s
         73   -2.565E-06                                 F               0         Tower X translation velocity, node 3, m/s
         74   -1.558E-04                                 F               0         Tower Y translation velocity, node 3, m/s
         75   -6.756E-06                                 F               0         Tower Z translation velocity, node 3, m/s
         76    2.805E-06                                 F               0         Tower X translation velocity, node 4, m/s
         77   -3.452E-04                                 F               0         Tower Y translation velocity, node 4, m/s
         78   -1.521E-05                                 F               0         Tower Z translation velocity, node 4, m/s
         79    1.259E-05                                 F               0         Tower X translation velocity, node 5, m/s
         80   -5.956E-04                                 F               0         Tower Y translation velocity, node 5, m/s
         81   -2.653E-05                                 F               0         Tower Z translation velocity, node 5, m/s
         82    2.731E-05                                 F               0         Tower X translation velocity, node 6, m/s
         83   -8.988E-04                                 F               0         Tower Y translation velocity, node 6, m/s
         84   -4.037E-05                                 F               0         Tower Z translation velocity, node 6, m/s
         85    4.676E-05                                 F               0         Tower X translation velocity, node 7, m/s
         86   -1.243E-03                                 F               0         Tower Y translation velocity, node 7, m/s
         87   -5.623E-05                                 F               0         Tower Z translation velocity, node 7, m/s
         88    7.126E-05                                 F               0         Tower X translation velocity, node 8, m/s
         89   -1.625E-03                                 F               0         Tower Y translation velocity, node 8, m/s
         90   -7.394E-05                                 F               0         Tower Z translation velocity, node 8, m/s
         91    1.003E-04                                 F               0         Tower X translation velocity, node 9, m/s
         92   -2.036E-03                                 F               0         Tower Y translation velocity, node 9, m/s
         93   -9.310E-05                                 F               0         Tower Z translation velocity, node 9, m/s
         94    1.330E-04                                 F               0         Tower X translation velocity, node 10, m/s
         95   -2.467E-03                                 F               0         Tower Y translation velocity, node 10, m/s
         96   -1.133E-04                                 F               0         Tower Z translation velocity, node 10, m/s
         97    1.683E-04                                 F               0         Tower X translation velocity, node 11, m/s
         98   -2.911E-03                                 F               0         Tower Y translation velocity, node 11, m/s
         99   -1.342E-04                                 F               0         Tower Z translation velocity, node 11, m/s
        100    3.040E+00                                 F               0         Hub X translation displacement, node 1, m
        101   -7.288E+00                                 F               0         Hub Y translation displacement, node 1, m
        102    3.585E-02                                 F               0         Hub Z translation displacement, node 1, m
        103    9.918E-01,  1.277E-02, -1.270E-01         F               0         Hub X orientation angle, node 1, rad
        104    1.035E-01,  5.022E-01,  8.585E-01         F               0         Hub Y orientation angle, node 1, rad
        105    7.476E-02, -8.647E-01,  4.968E-01         F               0         Hub Z orientation angle, node 1, rad
        106    8.864E-01                                 F               0         Hub X rotation velocity, node 1, rad/s
        107    1.141E-02                                 F               0         Hub Y rotation velocity, node 1, rad/s
        108   -1.135E-01                                 F               0         Hub Z rotation velocity, node 1, rad/s
        109    9.883E-01, -2.137E-03, -1.524E-01         F               0         Blade root 1 X orientation angle, node 1, rad
        110    1.329E-01,  5.024E-01,  8.544E-01         F               0         Blade root 1 Y orientation angle, node 1, rad
        111    7.476E-02, -8.647E-01,  4.968E-01         F               0         Blade root 1 Z orientation angle, node 1, rad
        112    9.910E-01,  4.243E-02, -1.270E-01         F               0         Blade root 2 X orientation angle, node 1, rad
        113    4.241E-02, -9.991E-01, -2.811E-03         F               0         Blade root 2 Y orientation angle, node 1, rad
        114   -1.270E-01, -2.601E-03, -9.919E-01         F               0         Blade root 2 Z orientation angle, node 1, rad
        115    9.948E-01, -2.003E-03, -1.015E-01         F               0         Blade root 3 X orientation angle, node 1, rad
        116   -8.701E-02,  4.979E-01, -8.629E-01         F               0         Blade root 3 Y orientation angle, node 1, rad
        117    5.225E-02,  8.673E-01,  4.951E-01         F               0         Blade root 3 Z orientation angle, node 1, rad
        118    2.875E+00                                 F               0         Blade 1 X translation displacement, node 1, m
        119   -1.208E+01                                 F               0         Blade 1 Y translation displacement, node 1, m
        120   -2.722E+00                                 F               0         Blade 1 Z translation displacement, node 1, m
        121    2.835E+00                                 F               0         Blade 1 X translation displacement, node 2, m
        122   -1.323E+01                                 F               0         Blade 1 Y translation displacement, node 2, m
        123   -3.386E+00                                 F               0         Blade 1 Z translation displacement, node 2, m
        124    2.295E+00                                 F               0         Blade 1 X translation displacement, node 3, m
        125   -2.893E+01                                 F               0         Blade 1 Y translation displacement, node 3, m
        126   -1.242E+01                                 F               0         Blade 1 Z translation displacement, node 3, m
        127    2.180E+00                                 F               0         Blade 1 X translation displacement, node 4, m
        128   -3.227E+01                                 F               0         Blade 1 Y translation displacement, node 4, m
        129   -1.435E+01                                 F               0         Blade 1 Z translation displacement, node 4, m
        130    2.064E+00                                 F               0         Blade 1 X translation displacement, node 5, m
        131   -3.562E+01                                 F               0         Blade 1 Y translation displacement, node 5, m
        132   -1.627E+01                                 F               0         Blade 1 Z translation displacement, node 5, m
        133    1.949E+00                                 F               0         Blade 1 X translation displacement, node 6, m
        134   -3.896E+01                                 F               0         Blade 1 Y translation displacement, node 6, m
        135   -1.820E+01                                 F               0         Blade 1 Z translation displacement, node 6, m
        136    1.834E+00                                 F               0         Blade 1 X translation displacement, node 7, m
        137   -4.230E+01                                 F               0         Blade 1 Y translation displacement, node 7, m
        138   -2.012E+01                                 F               0         Blade 1 Z translation displacement, node 7, m
        139    1.719E+00                                 F               0         Blade 1 X translation displacement, node 8, m
        140   -4.565E+01                                 F               0         Blade 1 Y translation displacement, node 8, m
        141   -2.205E+01                                 F               0         Blade 1 Z translation displacement, node 8, m
        142    1.604E+00                                 F               0         Blade 1 X translation displacement, node 9, m
        143   -4.899E+01                                 F               0         Blade 1 Y translation displacement, node 9, m
        144   -2.397E+01                                 F               0         Blade 1 Z translation displacement, node 9, m
        145    1.489E+00                                 F               0         Blade 1 X translation displacement, node 10, m
        146   -5.234E+01                                 F               0         Blade 1 Y translation displacement, node 10, m
        147   -2.590E+01                                 F               0         Blade 1 Z translation displacement, node 10, m
        148    1.373E+00                                 F               0         Blade 1 X translation displacement, node 11, m
        149   -5.568E+01                                 F               0         Blade 1 Y translation displacement, node 11, m
        150   -2.782E+01                                 F               0         Blade 1 Z translation displacement, node 11, m
        151    1.258E+00                                 F               0         Blade 1 X translation displacement, node 12, m
        152   -5.903E+01                                 F               0         Blade 1 Y translation displacement, node 12, m
        153   -2.975E+01                                 F               0         Blade 1 Z translation displacement, node 12, m
        154    1.143E+00                                 F               0         Blade 1 X translation displacement, node 13, m
        155   -6.237E+01                                 F               0         Blade 1 Y translation displacement, node 13, m
        156   -3.167E+01                                 F               0         Blade 1 Z translation displacement, node 13, m
        157    1.028E+00                                 F               0         Blade 1 X translation displacement, node 14, m
        158   -6.571E+01                                 F               0         Blade 1 Y translation displacement, node 14, m
        159   -3.360E+01                                 F               0         Blade 1 Z translation displacement, node 14, m
        160    9.128E-01                                 F               0         Blade 1 X translation displacement, node 15, m
        161   -6.906E+01                                 F               0         Blade 1 Y translation displacement, node 15, m
        162   -3.552E+01                                 F               0         Blade 1 Z translation displacement, node 15, m
        163    7.977E-01                                 F               0         Blade 1 X translation displacement, node 16, m
        164   -7.240E+01                                 F               0         Blade 1 Y translation displacement, node 16, m
        165   -3.745E+01                                 F               0         Blade 1 Z translation displacement, node 16, m
        166    6.826E-01                                 F               0         Blade 1 X translation displacement, node 17, m
        167   -7.575E+01                                 F               0         Blade 1 Y translation displacement, node 17, m
        168   -3.937E+01                                 F               0         Blade 1 Z translation displacement, node 17, m
        169    5.674E-01                                 F               0         Blade 1 X translation displacement, node 18, m
        170   -7.909E+01                                 F               0         Blade 1 Y translation displacement, node 18, m
        171   -4.130E+01                                 F               0         Blade 1 Z translation displacement, node 18, m
        172    4.522E-01                                 F               0         Blade 1 X translation displacement, node 19, m
        173   -8.244E+01                                 F               0         Blade 1 Y translation displacement, node 19, m
        174   -4.322E+01                                 F               0         Blade 1 Z translation displacement, node 19, m
        175    3.371E-01                                 F               0         Blade 1 X translation displacement, node 20, m
        176   -8.578E+01                                 F               0         Blade 1 Y translation displacement, node 20, m
        177   -4.515E+01                                 F               0         Blade 1 Z translation displacement, node 20, m
        178    2.220E-01                                 F               0         Blade 1 X translation displacement, node 21, m
        179   -8.912E+01                                 F               0         Blade 1 Y translation displacement, node 21, m
        180   -4.707E+01                                 F               0         Blade 1 Z translation displacement, node 21, m
        181    1.068E-01                                 F               0         Blade 1 X translation displacement, node 22, m
        182   -9.247E+01                                 F               0         Blade 1 Y translation displacement, node 22, m
        183   -4.900E+01                                 F               0         Blade 1 Z translation displacement, node 22, m
        184   -8.355E-03                                 F               0         Blade 1 X translation displacement, node 23, m
        185   -9.581E+01                                 F               0         Blade 1 Y translation displacement, node 23, m
        186   -5.092E+01                                 F               0         Blade 1 Z translation displacement, node 23, m
        187   -1.235E-01                                 F               0         Blade 1 X translation displacement, node 24, m
        188   -9.916E+01                                 F               0         Blade 1 Y translation displacement, node 24, m
        189   -5.285E+01                                 F               0         Blade 1 Z translation displacement, node 24, m
        190   -2.386E-01                                 F               0         Blade 1 X translation displacement, node 25, m
        191   -1.025E+02                                 F               0         Blade 1 Y translation displacement, node 25, m
        192   -5.477E+01                                 F               0         Blade 1 Z translation displacement, node 25, m
        193   -3.538E-01                                 F               0         Blade 1 X translation displacement, node 26, m
        194   -1.058E+02                                 F               0         Blade 1 Y translation displacement, node 26, m
        195   -5.670E+01                                 F               0         Blade 1 Z translation displacement, node 26, m
        196   -4.690E-01                                 F               0         Blade 1 X translation displacement, node 27, m
        197   -1.092E+02                                 F               0         Blade 1 Y translation displacement, node 27, m
        198   -5.862E+01                                 F               0         Blade 1 Z translation displacement, node 27, m
        199   -5.666E-01                                 F               0         Blade 1 X translation displacement, node 28, m
        200   -1.120E+02                                 F               0         Blade 1 Y translation displacement, node 28, m
        201   -6.026E+01                                 F               0         Blade 1 Z translation displacement, node 28, m
        202    8.190E-01, -2.310E-01, -5.253E-01         F               0         Blade 1 X orientation angle, node 1, rad
        203    5.689E-01,  4.461E-01,  6.909E-01         F               0         Blade 1 Y orientation angle, node 1, rad
        204    7.476E-02, -8.647E-01,  4.968E-01         F               0         Blade 1 Z orientation angle, node 1, rad
        205    8.190E-01, -2.310E-01, -5.253E-01         F               0         Blade 1 X orientation angle, node 2, rad
        206    5.689E-01,  4.461E-01,  6.909E-01         F               0         Blade 1 Y orientation angle, node 2, rad
        207    7.476E-02, -8.647E-01,  4.968E-01         F               0         Blade 1 Z orientation angle, node 2, rad
        208    9.305E-01, -1.187E-01, -3.466E-01         F               0         Blade 1 X orientation angle, node 3, rad
        209    3.586E-01,  4.882E-01,  7.957E-01         F               0         Blade 1 Y orientation angle, node 3, rad
        210    7.476E-02, -8.647E-01,  4.968E-01         F               0         Blade 1 Z orientation angle, node 3, rad
        211    9.448E-01, -9.795E-02, -3.127E-01         F               0         Blade 1 X orientation angle, node 4, rad
        212    3.190E-01,  4.927E-01,  8.096E-01         F               0         Blade 1 Y orientation angle, node 4, rad
        213    7.476E-02, -8.647E-01,  4.968E-01         F               0         Blade 1 Z orientation angle, node 4, rad
        214    9.549E-01, -8.156E-02, -2.857E-01         F               0         Blade 1 X orientation angle, node 5, rad
        215    2.875E-01,  4.957E-01,  8.195E-01         F               0         Blade 1 Y orientation angle, node 5, rad
        216    7.476E-02, -8.647E-01,  4.968E-01         F               0         Blade 1 Z orientation angle, node 5, rad
        217    9.621E-01, -6.839E-02, -2.638E-01         F               0         Blade 1 X orientation angle, node 6, rad
        218    2.621E-01,  4.977E-01,  8.268E-01         F               0         Blade 1 Y orientation angle, node 6, rad
        219    7.476E-02, -8.647E-01,  4.968E-01         F               0         Blade 1 Z orientation angle, node 6, rad
        220    9.676E-01, -5.751E-02, -2.457E-01         F               0         Blade 1 X orientation angle, node 7, rad
        221    2.410E-01,  4.991E-01,  8.324E-01         F               0         Blade 1 Y orientation angle, node 7, rad
        222    7.476E-02, -8.647E-01,  4.968E-01         F               0         Blade 1 Z orientation angle, node 7, rad
        223    9.719E-01, -4.844E-02, -2.306E-01         F               0         Blade 1 X orientation angle, node 8, rad
        224    2.234E-01,  5.000E-01,  8.367E-01         F               0         Blade 1 Y orientation angle, node 8, rad
        225    7.476E-02, -8.647E-01,  4.968E-01         F               0         Blade 1 Z orientation angle, node 8, rad
        226    9.752E-01, -4.076E-02, -2.177E-01         F               0         Blade 1 X orientation angle, node 9, rad
        227    2.085E-01,  5.007E-01,  8.401E-01         F               0         Blade 1 Y orientation angle, node 9, rad