
Linearized model: Predictions were generated on 24-Jan-2024 at 11:24:37 using OpenFAST, compiled as a 64-bit application using single precision at commit v3.5.1
 linked with  NWTC Subroutine Library; ElastoDyn; InflowWind; AeroDyn; ServoDyn; HydroDyn; MAP++ (<1.20.10>, <Oct-20-2023>)

Description from the FAST input file: CCT-9 Campign 4 model. Input files to be run with OpenFAST 3.5.0. GitHub branch from Lu Wang (https://github.com/luwang00/openfast/tree/dev) compiled on March 7, 2023.

Simulation information:
   Simulation time:                   508.1500 s
   Rotor Speed:                         0.8939 rad/s
   Azimuth:                             2.5422 rad
   Wind Speed:                         10.0000 m/s
   Number of continuous states:         0
   Number of discrete states:           0
   Number of constraint states:         0
   Number of inputs:                 1746
   Number of outputs:                   4
   Jacobians included in this file?    No

Order of inputs:
     Column   Operating Point                     Rotating Frame? Derivative Order Description
   ---------- ---------------                     --------------- ---------------- -----------
          1    1.535E-01                                 F               0         Tower X translation displacement, node 1, m
          2   -1.355E+00                                 F               0         Tower Y translation displacement, node 1, m
          3   -4.807E-02                                 F               0         Tower Z translation displacement, node 1, m
          4    3.902E-01                                 F               0         Tower X translation displacement, node 2, m
          5   -1.889E+00                                 F               0         Tower Y translation displacement, node 2, m
          6   -6.192E-02                                 F               0         Tower Z translation displacement, node 2, m
          7    6.403E-01                                 F               0         Tower X translation displacement, node 3, m
          8   -2.429E+00                                 F               0         Tower Y translation displacement, node 3, m
          9   -7.625E-02                                 F               0         Tower Z translation displacement, node 3, m
         10    9.002E-01                                 F               0         Tower X translation displacement, node 4, m
         11   -2.973E+00                                 F               0         Tower Y translation displacement, node 4, m
         12   -9.097E-02                                 F               0         Tower Z translation displacement, node 4, m
         13    1.168E+00                                 F               0         Tower X translation displacement, node 5, m
         14   -3.521E+00                                 F               0         Tower Y translation displacement, node 5, m
         15   -1.060E-01                                 F               0         Tower Z translation displacement, node 5, m
         16    1.442E+00                                 F               0         Tower X translation displacement, node 6, m
         17   -4.071E+00                                 F               0         Tower Y translation displacement, node 6, m
         18   -1.213E-01                                 F               0         Tower Z translation displacement, node 6, m
         19    1.720E+00                                 F               0         Tower X translation displacement, node 7, m
         20   -4.624E+00                                 F               0         Tower Y translation displacement, node 7, m
         21   -1.368E-01                                 F               0         Tower Z translation displacement, node 7, m
         22    2.001E+00                                 F               0         Tower X translation displacement, node 8, m
         23   -5.179E+00                                 F               0         Tower Y translation displacement, node 8, m
         24   -1.525E-01                                 F               0         Tower Z translation displacement, node 8, m
         25    2.285E+00                                 F               0         Tower X translation displacement, node 9, m
         26   -5.735E+00                                 F               0         Tower Y translation displacement, node 9, m
         27   -1.683E-01                                 F               0         Tower Z translation displacement, node 9, m
         28    2.569E+00                                 F               0         Tower X translation displacement, node 10, m
         29   -6.293E+00                                 F               0         Tower Y translation displacement, node 10, m
         30   -1.842E-01                                 F               0         Tower Z translation displacement, node 10, m
         31    2.855E+00                                 F               0         Tower X translation displacement, node 11, m
         32   -6.851E+00                                 F               0         Tower Y translation displacement, node 11, m
         33   -2.001E-01                                 F               0         Tower Z translation displacement, node 11, m
         34    9.998E-01,  7.899E-03, -1.840E-02         F               0         Tower X orientation angle, node 1, rad
         35   -7.096E-03,  9.990E-01,  4.325E-02         F               0         Tower Y orientation angle, node 1, rad
         36    1.873E-02, -4.311E-02,  9.989E-01         F               0         Tower Z orientation angle, node 1, rad
         37    9.998E-01,  7.943E-03, -1.942E-02         F               0         Tower X orientation angle, node 2, rad
         38   -7.089E-03,  9.990E-01,  4.365E-02         F               0         Tower Y orientation angle, node 2, rad
         39    1.975E-02, -4.350E-02,  9.989E-01         F               0         Tower Z orientation angle, node 2, rad
         40    9.998E-01,  7.981E-03, -2.030E-02         F               0         Tower X orientation angle, node 3, rad
         41   -7.081E-03,  9.990E-01,  4.401E-02         F               0         Tower Y orientation angle, node 3, rad
         42    2.063E-02, -4.386E-02,  9.988E-01         F               0         Tower Z orientation angle, node 3, rad
         43    9.997E-01,  8.013E-03, -2.101E-02         F               0         Tower X orientation angle, node 4, rad
         44   -7.075E-03,  9.990E-01,  4.433E-02         F               0         Tower Y orientation angle, node 4, rad
         45    2.135E-02, -4.417E-02,  9.988E-01         F               0         Tower Z orientation angle, node 4, rad
         46    9.997E-01,  8.038E-03, -2.158E-02         F               0         Tower X orientation angle, node 5, rad
         47   -7.069E-03,  9.990E-01,  4.460E-02         F               0         Tower Y orientation angle, node 5, rad
         48    2.192E-02, -4.443E-02,  9.988E-01         F               0         Tower Z orientation angle, node 5, rad
         49    9.997E-01,  8.057E-03, -2.201E-02         F               0         Tower X orientation angle, node 6, rad
         50   -7.064E-03,  9.990E-01,  4.482E-02         F               0         Tower Y orientation angle, node 6, rad
         51    2.235E-02, -4.466E-02,  9.988E-01         F               0         Tower Z orientation angle, node 6, rad
         52    9.997E-01,  8.071E-03, -2.232E-02         F               0         Tower X orientation angle, node 7, rad
         53   -7.060E-03,  9.990E-01,  4.501E-02         F               0         Tower Y orientation angle, node 7, rad
         54    2.266E-02, -4.484E-02,  9.987E-01         F               0         Tower Z orientation angle, node 7, rad
         55    9.997E-01,  8.080E-03, -2.252E-02         F               0         Tower X orientation angle, node 8, rad
         56   -7.057E-03,  9.990E-01,  4.515E-02         F               0         Tower Y orientation angle, node 8, rad
         57    2.286E-02, -4.497E-02,  9.987E-01         F               0         Tower Z orientation angle, node 8, rad
         58    9.997E-01,  8.086E-03, -2.265E-02         F               0         Tower X orientation angle, node 9, rad
         59   -7.055E-03,  9.990E-01,  4.525E-02         F               0         Tower Y orientation angle, node 9, rad
         60    2.299E-02, -4.508E-02,  9.987E-01         F               0         Tower Z orientation angle, node 9, rad
         61    9.997E-01,  8.089E-03, -2.272E-02         F               0         Tower X orientation angle, node 10, rad
         62   -7.053E-03,  9.989E-01,  4.532E-02         F               0         Tower Y orientation angle, node 10, rad
         63    2.306E-02, -4.514E-02,  9.987E-01         F               0         Tower Z orientation angle, node 10, rad
         64    9.997E-01,  8.091E-03, -2.275E-02         F               0         Tower X orientation angle, node 11, rad
         65   -7.052E-03,  9.989E-01,  4.535E-02         F               0         Tower Y orientation angle, node 11, rad
         66    2.309E-02, -4.518E-02,  9.987E-01         F               0         Tower Z orientation angle, node 11, rad
         67    5.020E-07                                 F               0         Tower X translation velocity, node 1, m/s
         68    2.181E-07                                 F               0         Tower Y translation velocity, node 1, m/s
         69    0.000E+00                                 F               0         Tower Z translation velocity, node 1, m/s
         70   -5.779E-06                                 F               0         Tower X translation velocity, node 2, m/s
         71   -1.666E-05                                 F               0         Tower Y translation velocity, node 2, m/s
         72   -6.109E-07                                 F               0         Tower Z translation velocity, node 2, m/s
         73   -3.070E-05                                 F               0         Tower X translation velocity, node 3, m/s
         74   -7.731E-05                                 F               0         Tower Y translation velocity, node 3, m/s
         75   -2.759E-06                                 F               0         Tower Z translation velocity, node 3, m/s
         76   -7.295E-05                                 F               0         Tower X translation velocity, node 4, m/s
         77   -1.728E-04                                 F               0         Tower Y translation velocity, node 4, m/s
         78   -6.078E-06                                 F               0         Tower Z translation velocity, node 4, m/s
         79   -1.327E-04                                 F               0         Tower X translation velocity, node 5, m/s
         80   -2.988E-04                                 F               0         Tower Y translation velocity, node 5, m/s
         81   -1.037E-05                                 F               0         Tower Z translation velocity, node 5, m/s
         82   -2.096E-04                                 F               0         Tower X translation velocity, node 6, m/s
         83   -4.508E-04                                 F               0         Tower Y translation velocity, node 6, m/s
         84   -1.545E-05                                 F               0         Tower Z translation velocity, node 6, m/s
         85   -3.016E-04                                 F               0         Tower X translation velocity, node 7, m/s
         86   -6.230E-04                                 F               0         Tower Y translation velocity, node 7, m/s
         87   -2.109E-05                                 F               0         Tower Z translation velocity, node 7, m/s
         88   -4.086E-04                                 F               0         Tower X translation velocity, node 8, m/s
         89   -8.133E-04                                 F               0         Tower Y translation velocity, node 8, m/s
         90   -2.720E-05                                 F               0         Tower Z translation velocity, node 8, m/s
         91   -5.285E-04                                 F               0         Tower X translation velocity, node 9, m/s
         92   -1.017E-03                                 F               0         Tower Y translation velocity, node 9, m/s
         93   -3.365E-05                                 F               0         Tower Z translation velocity, node 9, m/s
         94   -6.583E-04                                 F               0         Tower X translation velocity, node 10, m/s
         95   -1.231E-03                                 F               0         Tower Y translation velocity, node 10, m/s
         96   -4.032E-05                                 F               0         Tower Z translation velocity, node 10, m/s
         97   -7.948E-04                                 F               0         Tower X translation velocity, node 11, m/s
         98   -1.451E-03                                 F               0         Tower Y translation velocity, node 11, m/s
         99   -4.711E-05                                 F               0         Tower Z translation velocity, node 11, m/s
        100    3.039E+00                                 F               0         Hub X translation displacement, node 1, m
        101   -7.293E+00                                 F               0         Hub Y translation displacement, node 1, m
        102    3.555E-02                                 F               0         Hub Z translation displacement, node 1, m
        103    9.918E-01,  1.277E-02, -1.270E-01         F               0         Hub X orientation angle, node 1, rad
        104    7.773E-02, -8.497E-01,  5.215E-01         F               0         Hub Y orientation angle, node 1, rad
        105   -1.013E-01, -5.271E-01, -8.437E-01         F               0         Hub Z orientation angle, node 1, rad
        106    8.866E-01                                 F               0         Hub X rotation velocity, node 1, rad/s
        107    1.140E-02                                 F               0         Hub Y rotation velocity, node 1, rad/s
        108   -1.135E-01                                 F               0         Hub Z rotation velocity, node 1, rad/s
        109    9.891E-01,  3.797E-02, -1.424E-01         F               0         Blade root 1 X orientation angle, node 1, rad
        110    1.071E-01, -8.489E-01,  5.175E-01         F               0         Blade root 1 Y orientation angle, node 1, rad
        111   -1.013E-01, -5.271E-01, -8.437E-01         F               0         Blade root 1 Z orientation angle, node 1, rad
        112    9.951E-01,  1.370E-02, -9.755E-02         F               0         Blade root 2 X orientation angle, node 1, rad
        113   -9.709E-02, -3.125E-02, -9.948E-01         F               0         Blade root 2 Y orientation angle, node 1, rad
        114   -1.668E-02,  9.994E-01, -2.976E-02         F               0         Blade root 2 Z orientation angle, node 1, rad
        115    9.899E-01, -1.338E-02, -1.409E-01         F               0         Blade root 3 X orientation angle, node 1, rad
        116    7.824E-02,  8.813E-01,  4.660E-01         F               0         Blade root 3 Y orientation angle, node 1, rad
        117    1.179E-01, -4.723E-01,  8.735E-01         F               0         Blade root 3 Z orientation angle, node 1, rad
        118    1.899E+00                                 F               0         Blade 1 X translation displacement, node 1, m
        119   -1.021E+01                                 F               0         Blade 1 Y translation displacement, node 1, m
        120   -1.015E+01                                 F               0         Blade 1 Z translation displacement, node 1, m
        121    1.624E+00                                 F               0         Blade 1 X translation displacement, node 2, m
        122   -1.092E+01                                 F               0         Blade 1 Y translation displacement, node 2, m
        123   -1.260E+01                                 F               0         Blade 1 Z translation displacement, node 2, m
        124   -2.111E+00                                 F               0         Blade 1 X translation displacement, node 3, m
        125   -2.048E+01                                 F               0         Blade 1 Y translation displacement, node 3, m
        126   -4.597E+01                                 F               0         Blade 1 Z translation displacement, node 3, m
        127   -2.907E+00                                 F               0         Blade 1 X translation displacement, node 4, m
        128   -2.252E+01                                 F               0         Blade 1 Y translation displacement, node 4, m
        129   -5.308E+01                                 F               0         Blade 1 Z translation displacement, node 4, m
        130   -3.703E+00                                 F               0         Blade 1 X translation displacement, node 5, m
        131   -2.456E+01                                 F               0         Blade 1 Y translation displacement, node 5, m
        132   -6.019E+01                                 F               0         Blade 1 Z translation displacement, node 5, m
        133   -4.499E+00                                 F               0         Blade 1 X translation displacement, node 6, m
        134   -2.660E+01                                 F               0         Blade 1 Y translation displacement, node 6, m
        135   -6.730E+01                                 F               0         Blade 1 Z translation displacement, node 6, m
        136   -5.295E+00                                 F               0         Blade 1 X translation displacement, node 7, m
        137   -2.864E+01                                 F               0         Blade 1 Y translation displacement, node 7, m
        138   -7.441E+01                                 F               0         Blade 1 Z translation displacement, node 7, m
        139   -6.091E+00                                 F               0         Blade 1 X translation displacement, node 8, m
        140   -3.068E+01                                 F               0         Blade 1 Y translation displacement, node 8, m
        141   -8.152E+01                                 F               0         Blade 1 Z translation displacement, node 8, m
        142   -6.887E+00                                 F               0         Blade 1 X translation displacement, node 9, m
        143   -3.272E+01                                 F               0         Blade 1 Y translation displacement, node 9, m
        144   -8.863E+01                                 F               0         Blade 1 Z translation displacement, node 9, m
        145   -7.683E+00                                 F               0         Blade 1 X translation displacement, node 10, m
        146   -3.476E+01                                 F               0         Blade 1 Y translation displacement, node 10, m
        147   -9.574E+01                                 F               0         Blade 1 Z translation displacement, node 10, m
        148   -8.479E+00                                 F               0         Blade 1 X translation displacement, node 11, m
        149   -3.679E+01                                 F               0         Blade 1 Y translation displacement, node 11, m
        150   -1.028E+02                                 F               0         Blade 1 Z translation displacement, node 11, m
        151   -9.275E+00                                 F               0         Blade 1 X translation displacement, node 12, m
        152   -3.883E+01                                 F               0         Blade 1 Y translation displacement, node 12, m
        153   -1.100E+02                                 F               0         Blade 1 Z translation displacement, node 12, m
        154   -1.007E+01                                 F               0         Blade 1 X translation displacement, node 13, m
        155   -4.087E+01                                 F               0         Blade 1 Y translation displacement, node 13, m
        156   -1.171E+02                                 F               0         Blade 1 Z translation displacement, node 13, m
        157   -1.087E+01                                 F               0         Blade 1 X translation displacement, node 14, m
        158   -4.291E+01                                 F               0         Blade 1 Y translation displacement, node 14, m
        159   -1.242E+02                                 F               0         Blade 1 Z translation displacement, node 14, m
        160   -1.166E+01                                 F               0         Blade 1 X translation displacement, node 15, m
        161   -4.495E+01                                 F               0         Blade 1 Y translation displacement, node 15, m
        162   -1.313E+02                                 F               0         Blade 1 Z translation displacement, node 15, m
        163   -1.246E+01                                 F               0         Blade 1 X translation displacement, node 16, m
        164   -4.699E+01                                 F               0         Blade 1 Y translation displacement, node 16, m
        165   -1.384E+02                                 F               0         Blade 1 Z translation displacement, node 16, m
        166   -1.325E+01                                 F               0         Blade 1 X translation displacement, node 17, m
        167   -4.903E+01                                 F               0         Blade 1 Y translation displacement, node 17, m
        168   -1.455E+02                                 F               0         Blade 1 Z translation displacement, node 17, m
        169   -1.405E+01                                 F               0         Blade 1 X translation displacement, node 18, m
        170   -5.107E+01                                 F               0         Blade 1 Y translation displacement, node 18, m
        171   -1.526E+02                                 F               0         Blade 1 Z translation displacement, node 18, m
        172   -1.485E+01                                 F               0         Blade 1 X translation displacement, node 19, m
        173   -5.310E+01                                 F               0         Blade 1 Y translation displacement, node 19, m
        174   -1.597E+02                                 F               0         Blade 1 Z translation displacement, node 19, m
        175   -1.564E+01                                 F               0         Blade 1 X translation displacement, node 20, m
        176   -5.514E+01                                 F               0         Blade 1 Y translation displacement, node 20, m
        177   -1.668E+02                                 F               0         Blade 1 Z translation displacement, node 20, m
        178   -1.644E+01                                 F               0         Blade 1 X translation displacement, node 21, m
        179   -5.718E+01                                 F               0         Blade 1 Y translation displacement, node 21, m
        180   -1.739E+02                                 F               0         Blade 1 Z translation displacement, node 21, m
        181   -1.723E+01                                 F               0         Blade 1 X translation displacement, node 22, m
        182   -5.922E+01                                 F               0         Blade 1 Y translation displacement, node 22, m
        183   -1.811E+02                                 F               0         Blade 1 Z translation displacement, node 22, m
        184   -1.803E+01                                 F               0         Blade 1 X translation displacement, node 23, m
        185   -6.126E+01                                 F               0         Blade 1 Y translation displacement, node 23, m
        186   -1.882E+02                                 F               0         Blade 1 Z translation displacement, node 23, m
        187   -1.883E+01                                 F               0         Blade 1 X translation displacement, node 24, m
        188   -6.330E+01                                 F               0         Blade 1 Y translation displacement, node 24, m
        189   -1.953E+02                                 F               0         Blade 1 Z translation displacement, node 24, m
        190   -1.962E+01                                 F               0         Blade 1 X translation displacement, node 25, m
        191   -6.534E+01                                 F               0         Blade 1 Y translation displacement, node 25, m
        192   -2.024E+02                                 F               0         Blade 1 Z translation displacement, node 25, m
        193   -2.042E+01                                 F               0         Blade 1 X translation displacement, node 26, m
        194   -6.738E+01                                 F               0         Blade 1 Y translation displacement, node 26, m
        195   -2.095E+02                                 F               0         Blade 1 Z translation displacement, node 26, m
        196   -2.121E+01                                 F               0         Blade 1 X translation displacement, node 27, m
        197   -6.941E+01                                 F               0         Blade 1 Y translation displacement, node 27, m
        198   -2.166E+02                                 F               0         Blade 1 Z translation displacement, node 27, m
        199   -2.189E+01                                 F               0         Blade 1 X translation displacement, node 28, m
        200   -7.114E+01                                 F               0         Blade 1 Y translation displacement, node 28, m
        201   -2.226E+02                                 F               0         Blade 1 Z translation displacement, node 28, m
        202    8.314E-01,  4.209E-01, -3.628E-01         F               0         Blade 1 X orientation angle, node 1, rad
        203    5.464E-01, -7.382E-01,  3.956E-01         F               0         Blade 1 Y orientation angle, node 1, rad
        204   -1.013E-01, -5.271E-01, -8.437E-01         F               0         Blade 1 Z orientation angle, node 1, rad
        205    8.314E-01,  4.209E-01, -3.628E-01         F               0         Blade 1 X orientation angle, node 2, rad
        206    5.464E-01, -7.382E-01,  3.956E-01         F               0         Blade 1 Y orientation angle, node 2, rad
        207   -1.013E-01, -5.271E-01, -8.437E-01         F               0         Blade 1 Z orientation angle, node 2, rad
        208    9.372E-01,  2.340E-01, -2.587E-01         F               0         Blade 1 X orientation angle, node 3, rad
        209    3.337E-01, -8.170E-01,  4.703E-01         F               0         Blade 1 Y orientation angle, node 3, rad
        210   -1.013E-01, -5.271E-01, -8.437E-01         F               0         Blade 1 Z orientation angle, node 3, rad
        211    9.505E-01,  1.993E-01, -2.386E-01         F               0         Blade 1 X orientation angle, node 4, rad
        212    2.939E-01, -8.261E-01,  4.808E-01         F               0         Blade 1 Y orientation angle, node 4, rad
        213   -1.013E-01, -5.271E-01, -8.437E-01         F               0         Blade 1 Z orientation angle, node 4, rad
        214    9.597E-01,  1.718E-01, -2.225E-01         F               0         Blade 1 X orientation angle, node 5, rad
        215    2.622E-01, -8.323E-01,  4.885E-01         F               0         Blade 1 Y orientation angle, node 5, rad
        216   -1.013E-01, -5.271E-01, -8.437E-01         F               0         Blade 1 Z orientation angle, node 5, rad
        217    9.663E-01,  1.496E-01, -2.095E-01         F               0         Blade 1 X orientation angle, node 6, rad
        218    2.366E-01, -8.365E-01,  4.942E-01         F               0         Blade 1 Y orientation angle, node 6, rad
        219   -1.013E-01, -5.271E-01, -8.437E-01         F               0         Blade 1 Z orientation angle, node 6, rad
        220    9.712E-01,  1.313E-01, -1.986E-01         F               0         Blade 1 X orientation angle, node 7, rad
        221    2.155E-01, -8.396E-01,  4.986E-01         F               0         Blade 1 Y orientation angle, node 7, rad
        222   -1.013E-01, -5.271E-01, -8.437E-01         F               0         Blade 1 Z orientation angle, node 7, rad
        223    9.750E-01,  1.161E-01, -1.895E-01         F               0         Blade 1 X orientation angle, node 8, rad
        224    1.978E-01, -8.418E-01,  5.022E-01         F               0         Blade 1 Y orientation angle, node 8, rad
        225   -1.013E-01, -5.271E-01, -8.437E-01         F               0         Blade 1 Z orientation angle, node 8, rad
        226    9.779E-01,  1.031E-01, -1.818E-01         F               0         Blade 1 X orientation angle, node 9, rad
        227    1.829E-01, -8.435E-01,  5.050E-01         F               0         Blade 1 Y orientation angle, node 9, rad