
Linearized model: Predictions were generated on 24-Jan-2024 at 11:24:37 using OpenFAST, compiled as a 64-bit application using single precision at commit v3.5.1
 linked with  NWTC Subroutine Library; ElastoDyn; InflowWind; AeroDyn; ServoDyn; HydroDyn; MAP++ (<1.20.10>, <Oct-20-2023>)

Description from the FAST input file: CCT-9 Campign 4 model. Input files to be run with OpenFAST 3.5.0. GitHub branch from Lu Wang (https://github.com/luwang00/openfast/tree/dev) compiled on March 7, 2023.

Simulation information:
   Simulation time:                   500.5000 s
   Rotor Speed:                         0.8937 rad/s
   Azimuth:                             1.9871 rad
   Wind Speed:                         10.0000 m/s
   Number of continuous states:         0
   Number of discrete states:           0
   Number of constraint states:         0
   Number of inputs:                 1746
   Number of outputs:                   4
   Jacobians included in this file?    No

Order of inputs:
     Column   Operating Point                     Rotating Frame? Derivative Order Description
   ---------- ---------------                     --------------- ---------------- -----------
          1    1.535E-01                                 F               0         Tower X translation displacement, node 1, m
          2   -1.355E+00                                 F               0         Tower Y translation displacement, node 1, m
          3   -4.807E-02                                 F               0         Tower Z translation displacement, node 1, m
          4    3.903E-01                                 F               0         Tower X translation displacement, node 2, m
          5   -1.889E+00                                 F               0         Tower Y translation displacement, node 2, m
          6   -6.192E-02                                 F               0         Tower Z translation displacement, node 2, m
          7    6.403E-01                                 F               0         Tower X translation displacement, node 3, m
          8   -2.429E+00                                 F               0         Tower Y translation displacement, node 3, m
          9   -7.625E-02                                 F               0         Tower Z translation displacement, node 3, m
         10    9.003E-01                                 F               0         Tower X translation displacement, node 4, m
         11   -2.973E+00                                 F               0         Tower Y translation displacement, node 4, m
         12   -9.097E-02                                 F               0         Tower Z translation displacement, node 4, m
         13    1.168E+00                                 F               0         Tower X translation displacement, node 5, m
         14   -3.521E+00                                 F               0         Tower Y translation displacement, node 5, m
         15   -1.060E-01                                 F               0         Tower Z translation displacement, node 5, m
         16    1.442E+00                                 F               0         Tower X translation displacement, node 6, m
         17   -4.071E+00                                 F               0         Tower Y translation displacement, node 6, m
         18   -1.213E-01                                 F               0         Tower Z translation displacement, node 6, m
         19    1.720E+00                                 F               0         Tower X translation displacement, node 7, m
         20   -4.624E+00                                 F               0         Tower Y translation displacement, node 7, m
         21   -1.368E-01                                 F               0         Tower Z translation displacement, node 7, m
         22    2.002E+00                                 F               0         Tower X translation displacement, node 8, m
         23   -5.178E+00                                 F               0         Tower Y translation displacement, node 8, m
         24   -1.525E-01                                 F               0         Tower Z translation displacement, node 8, m
         25    2.285E+00                                 F               0         Tower X translation displacement, node 9, m
         26   -5.735E+00                                 F               0         Tower Y translation displacement, node 9, m
         27   -1.683E-01                                 F               0         Tower Z translation displacement, node 9, m
         28    2.570E+00                                 F               0         Tower X translation displacement, node 10, m
         29   -6.292E+00                                 F               0         Tower Y translation displacement, node 10, m
         30   -1.841E-01                                 F               0         Tower Z translation displacement, node 10, m
         31    2.855E+00                                 F               0         Tower X translation displacement, node 11, m
         32   -6.850E+00                                 F               0         Tower Y translation displacement, node 11, m
         33   -2.000E-01                                 F               0         Tower Z translation displacement, node 11, m
         34    9.998E-01,  7.901E-03, -1.840E-02         F               0         Tower X orientation angle, node 1, rad
         35   -7.099E-03,  9.990E-01,  4.325E-02         F               0         Tower Y orientation angle, node 1, rad
         36    1.873E-02, -4.311E-02,  9.989E-01         F               0         Tower Z orientation angle, node 1, rad
         37    9.998E-01,  7.945E-03, -1.942E-02         F               0         Tower X orientation angle, node 2, rad
         38   -7.091E-03,  9.990E-01,  4.365E-02         F               0         Tower Y orientation angle, node 2, rad
         39    1.975E-02, -4.350E-02,  9.989E-01         F               0         Tower Z orientation angle, node 2, rad
         40    9.998E-01,  7.984E-03, -2.030E-02         F               0         Tower X orientation angle, node 3, rad
         41   -7.084E-03,  9.990E-01,  4.401E-02         F               0         Tower Y orientation angle, node 3, rad
         42    2.063E-02, -4.386E-02,  9.988E-01         F               0         Tower Z orientation angle, node 3, rad
         43    9.997E-01,  8.015E-03, -2.101E-02         F               0         Tower X orientation angle, node 4, rad
         44   -7.077E-03,  9.990E-01,  4.432E-02         F               0         Tower Y orientation angle, node 4, rad
         45    2.135E-02, -4.416E-02,  9.988E-01         F               0         Tower Z orientation angle, node 4, rad
         46    9.997E-01,  8.040E-03, -2.158E-02         F               0         Tower X orientation angle, node 5, rad
         47   -7.072E-03,  9.990E-01,  4.459E-02         F               0         Tower Y orientation angle, node 5, rad
         48    2.192E-02, -4.443E-02,  9.988E-01         F               0         Tower Z orientation angle, node 5, rad
         49    9.997E-01,  8.060E-03, -2.202E-02         F               0         Tower X orientation angle, node 6, rad
         50   -7.067E-03,  9.990E-01,  4.482E-02         F               0         Tower Y orientation angle, node 6, rad
         51    2.235E-02, -4.465E-02,  9.988E-01         F               0         Tower Z orientation angle, node 6, rad
         52    9.997E-01,  8.074E-03, -2.232E-02         F               0         Tower X orientation angle, node 7, rad
         53   -7.063E-03,  9.990E-01,  4.500E-02         F               0         Tower Y orientation angle, node 7, rad
         54    2.266E-02, -4.483E-02,  9.987E-01         F               0         Tower Z orientation angle, node 7, rad
         55    9.997E-01,  8.083E-03, -2.253E-02         F               0         Tower X orientation angle, node 8, rad
         56   -7.060E-03,  9.990E-01,  4.514E-02         F               0         Tower Y orientation angle, node 8, rad
         57    2.287E-02, -4.497E-02,  9.987E-01         F               0         Tower Z orientation angle, node 8, rad
         58    9.997E-01,  8.089E-03, -2.266E-02         F               0         Tower X orientation angle, node 9, rad
         59   -7.057E-03,  9.990E-01,  4.524E-02         F               0         Tower Y orientation angle, node 9, rad
         60    2.300E-02, -4.507E-02,  9.987E-01         F               0         Tower Z orientation angle, node 9, rad
         61    9.997E-01,  8.092E-03, -2.273E-02         F               0         Tower X orientation angle, node 10, rad
         62   -7.056E-03,  9.989E-01,  4.531E-02         F               0         Tower Y orientation angle, node 10, rad
         63    2.307E-02, -4.514E-02,  9.987E-01         F               0         Tower Z orientation angle, node 10, rad
         64    9.997E-01,  8.093E-03, -2.276E-02         F               0         Tower X orientation angle, node 11, rad
         65   -7.055E-03,  9.989E-01,  4.535E-02         F               0         Tower Y orientation angle, node 11, rad
         66    2.310E-02, -4.517E-02,  9.987E-01         F               0         Tower Z orientation angle, node 11, rad
         67   -2.033E-06                                 F               0         Tower X translation velocity, node 1, m/s
         68   -8.832E-07                                 F               0         Tower Y translation velocity, node 1, m/s
         69    0.000E+00                                 F               0         Tower Z translation velocity, node 1, m/s
         70   -6.838E-06                                 F               0         Tower X translation velocity, node 2, m/s
         71   -3.998E-05                                 F               0         Tower Y translation velocity, node 2, m/s
         72   -1.605E-06                                 F               0         Tower Z translation velocity, node 2, m/s
         73   -2.167E-05                                 F               0         Tower X translation velocity, node 3, m/s
         74   -1.784E-04                                 F               0         Tower Y translation velocity, node 3, m/s
         75   -7.358E-06                                 F               0         Tower Z translation velocity, node 3, m/s
         76   -4.632E-05                                 F               0         Tower X translation velocity, node 4, m/s
         77   -3.964E-04                                 F               0         Tower Y translation velocity, node 4, m/s
         78   -1.645E-05                                 F               0         Tower Z translation velocity, node 4, m/s
         79   -8.128E-05                                 F               0         Tower X translation velocity, node 5, m/s
         80   -6.845E-04                                 F               0         Tower Y translation velocity, node 5, m/s
         81   -2.847E-05                                 F               0         Tower Z translation velocity, node 5, m/s
         82   -1.267E-04                                 F               0         Tower X translation velocity, node 6, m/s
         83   -1.033E-03                                 F               0         Tower Y translation velocity, node 6, m/s
         84   -4.302E-05                                 F               0         Tower Z translation velocity, node 6, m/s
         85   -1.815E-04                                 F               0         Tower X translation velocity, node 7, m/s
         86   -1.429E-03                                 F               0         Tower Y translation velocity, node 7, m/s
         87   -5.952E-05                                 F               0         Tower Z translation velocity, node 7, m/s
         88   -2.459E-04                                 F               0         Tower X translation velocity, node 8, m/s
         89   -1.868E-03                                 F               0         Tower Y translation velocity, node 8, m/s
         90   -7.776E-05                                 F               0         Tower Z translation velocity, node 8, m/s
         91   -3.186E-04                                 F               0         Tower X translation velocity, node 9, m/s
         92   -2.339E-03                                 F               0         Tower Y translation velocity, node 9, m/s
         93   -9.734E-05                                 F               0         Tower Z translation velocity, node 9, m/s
         94   -3.978E-04                                 F               0         Tower X translation velocity, node 10, m/s
         95   -2.833E-03                                 F               0         Tower Y translation velocity, node 10, m/s
         96   -1.178E-04                                 F               0         Tower Z translation velocity, node 10, m/s
         97   -4.814E-04                                 F               0         Tower X translation velocity, node 11, m/s
         98   -3.343E-03                                 F               0         Tower Y translation velocity, node 11, m/s
         99   -1.389E-04                                 F               0         Tower Z translation velocity, node 11, m/s
        100    3.040E+00                                 F               0         Hub X translation displacement, node 1, m
        101   -7.292E+00                                 F               0         Hub Y translation displacement, node 1, m
        102    3.563E-02                                 F               0         Hub Z translation displacement, node 1, m
        103    9.918E-01,  1.277E-02, -1.270E-01         F               0         Hub X orientation angle, node 1, rad
        104    1.194E-01, -4.443E-01,  8.879E-01         F               0         Hub Y orientation angle, node 1, rad
        105   -4.510E-02, -8.958E-01, -4.422E-01         F               0         Hub Z orientation angle, node 1, rad
        106    8.865E-01                                 F               0         Hub X rotation velocity, node 1, rad/s
        107    1.141E-02                                 F               0         Hub Y rotation velocity, node 1, rad/s
        108   -1.135E-01                                 F               0         Hub Z rotation velocity, node 1, rad/s
        109    9.878E-01,  2.595E-02, -1.533E-01         F               0         Blade root 1 X orientation angle, node 1, rad
        110    1.488E-01, -4.437E-01,  8.837E-01         F               0         Blade root 1 Y orientation angle, node 1, rad
        111   -4.510E-02, -8.958E-01, -4.422E-01         F               0         Blade root 1 Z orientation angle, node 1, rad
        112    9.943E-01,  2.919E-02, -1.024E-01         F               0         Blade root 2 X orientation angle, node 1, rad
        113   -6.931E-02, -5.530E-01, -8.303E-01         F               0         Blade root 2 Y orientation angle, node 1, rad
        114   -8.089E-02,  8.327E-01, -5.478E-01         F               0         Blade root 2 Z orientation angle, node 1, rad
        115    9.920E-01, -1.684E-02, -1.252E-01         F               0         Blade root 3 X orientation angle, node 1, rad
        116    8.769E-03,  9.979E-01, -6.475E-02         F               0         Blade root 3 Y orientation angle, node 1, rad
        117    1.260E-01,  6.314E-02,  9.900E-01         F               0         Blade root 3 Z orientation angle, node 1, rad
        118    2.211E+00                                 F               0         Blade 1 X translation displacement, node 1, m
        119   -1.225E+01                                 F               0         Blade 1 Y translation displacement, node 1, m
        120   -7.924E+00                                 F               0         Blade 1 Z translation displacement, node 1, m
        121    2.011E+00                                 F               0         Blade 1 X translation displacement, node 2, m
        122   -1.345E+01                                 F               0         Blade 1 Y translation displacement, node 2, m
        123   -9.842E+00                                 F               0         Blade 1 Z translation displacement, node 2, m
        124   -7.051E-01                                 F               0         Blade 1 X translation displacement, node 3, m
        125   -2.971E+01                                 F               0         Blade 1 Y translation displacement, node 3, m
        126   -3.592E+01                                 F               0         Blade 1 Z translation displacement, node 3, m
        127   -1.284E+00                                 F               0         Blade 1 X translation displacement, node 4, m
        128   -3.318E+01                                 F               0         Blade 1 Y translation displacement, node 4, m
        129   -4.148E+01                                 F               0         Blade 1 Z translation displacement, node 4, m
        130   -1.863E+00                                 F               0         Blade 1 X translation displacement, node 5, m
        131   -3.664E+01                                 F               0         Blade 1 Y translation displacement, node 5, m
        132   -4.703E+01                                 F               0         Blade 1 Z translation displacement, node 5, m
        133   -2.441E+00                                 F               0         Blade 1 X translation displacement, node 6, m
        134   -4.011E+01                                 F               0         Blade 1 Y translation displacement, node 6, m
        135   -5.259E+01                                 F               0         Blade 1 Z translation displacement, node 6, m
        136   -3.020E+00                                 F               0         Blade 1 X translation displacement, node 7, m
        137   -4.357E+01                                 F               0         Blade 1 Y translation displacement, node 7, m
        138   -5.815E+01                                 F               0         Blade 1 Z translation displacement, node 7, m
        139   -3.599E+00                                 F               0         Blade 1 X translation displacement, node 8, m
        140   -4.704E+01                                 F               0         Blade 1 Y translation displacement, node 8, m
        141   -6.371E+01                                 F               0         Blade 1 Z translation displacement, node 8, m
        142   -4.177E+00                                 F               0         Blade 1 X translation displacement, node 9, m
        143   -5.050E+01                                 F               0         Blade 1 Y translation displacement, node 9, m
        144   -6.926E+01                                 F               0         Blade 1 Z translation displacement, node 9, m
        145   -4.756E+00                                 F               0         Blade 1 X translation displacement, node 10, m
        146   -5.396E+01                                 F               0         Blade 1 Y translation displacement, node 10, m
        147   -7.482E+01                                 F               0         Blade 1 Z translation displacement, node 10, m
        148   -5.335E+00                                 F               0         Blade 1 X translation displacement, node 11, m
        149   -5.743E+01                                 F               0         Blade 1 Y translation displacement, node 11, m
        150   -8.037E+01                                 F               0         Blade 1 Z translation displacement, node 11, m
        151   -5.914E+00                                 F               0         Blade 1 X translation displacement, node 12, m
        152   -6.089E+01                                 F               0         Blade 1 Y translation displacement, node 12, m
        153   -8.593E+01                                 F               0         Blade 1 Z translation displacement, node 12, m
        154   -6.492E+00                                 F               0         Blade 1 X translation displacement, node 13, m
        155   -6.436E+01                                 F               0         Blade 1 Y translation displacement, node 13, m
        156   -9.149E+01                                 F               0         Blade 1 Z translation displacement, node 13, m
        157   -7.071E+00                                 F               0         Blade 1 X translation displacement, node 14, m
        158   -6.782E+01                                 F               0         Blade 1 Y translation displacement, node 14, m
        159   -9.704E+01                                 F               0         Blade 1 Z translation displacement, node 14, m
        160   -7.650E+00                                 F               0         Blade 1 X translation displacement, node 15, m
        161   -7.129E+01                                 F               0         Blade 1 Y translation displacement, node 15, m
        162   -1.026E+02                                 F               0         Blade 1 Z translation displacement, node 15, m
        163   -8.228E+00                                 F               0         Blade 1 X translation displacement, node 16, m
        164   -7.475E+01                                 F               0         Blade 1 Y translation displacement, node 16, m
        165   -1.082E+02                                 F               0         Blade 1 Z translation displacement, node 16, m
        166   -8.807E+00                                 F               0         Blade 1 X translation displacement, node 17, m
        167   -7.822E+01                                 F               0         Blade 1 Y translation displacement, node 17, m
        168   -1.137E+02                                 F               0         Blade 1 Z translation displacement, node 17, m
        169   -9.386E+00                                 F               0         Blade 1 X translation displacement, node 18, m
        170   -8.168E+01                                 F               0         Blade 1 Y translation displacement, node 18, m
        171   -1.193E+02                                 F               0         Blade 1 Z translation displacement, node 18, m
        172   -9.964E+00                                 F               0         Blade 1 X translation displacement, node 19, m
        173   -8.515E+01                                 F               0         Blade 1 Y translation displacement, node 19, m
        174   -1.248E+02                                 F               0         Blade 1 Z translation displacement, node 19, m
        175   -1.054E+01                                 F               0         Blade 1 X translation displacement, node 20, m
        176   -8.861E+01                                 F               0         Blade 1 Y translation displacement, node 20, m
        177   -1.304E+02                                 F               0         Blade 1 Z translation displacement, node 20, m
        178   -1.112E+01                                 F               0         Blade 1 X translation displacement, node 21, m
        179   -9.208E+01                                 F               0         Blade 1 Y translation displacement, node 21, m
        180   -1.359E+02                                 F               0         Blade 1 Z translation displacement, node 21, m
        181   -1.170E+01                                 F               0         Blade 1 X translation displacement, node 22, m
        182   -9.554E+01                                 F               0         Blade 1 Y translation displacement, node 22, m
        183   -1.415E+02                                 F               0         Blade 1 Z translation displacement, node 22, m
        184   -1.228E+01                                 F               0         Blade 1 X translation displacement, node 23, m
        185   -9.900E+01                                 F               0         Blade 1 Y translation displacement, node 23, m
        186   -1.471E+02                                 F               0         Blade 1 Z translation displacement, node 23, m
        187   -1.286E+01                                 F               0         Blade 1 X translation displacement, node 24, m
        188   -1.025E+02                                 F               0         Blade 1 Y translation displacement, node 24, m
        189   -1.526E+02                                 F               0         Blade 1 Z translation displacement, node 24, m
        190   -1.344E+01                                 F               0         Blade 1 X translation displacement, node 25, m
        191   -1.059E+02                                 F               0         Blade 1 Y translation displacement, node 25, m
        192   -1.582E+02                                 F               0         Blade 1 Z translation displacement, node 25, m
        193   -1.402E+01                                 F               0         Blade 1 X translation displacement, node 26, m
        194   -1.094E+02                                 F               0         Blade 1 Y translation displacement, node 26, m
        195   -1.637E+02                                 F               0         Blade 1 Z translation displacement, node 26, m
        196   -1.459E+01                                 F               0         Blade 1 X translation displacement, node 27, m
        197   -1.129E+02                                 F               0         Blade 1 Y translation displacement, node 27, m
        198   -1.693E+02                                 F               0         Blade 1 Z translation displacement, node 27, m
        199   -1.508E+01                                 F               0         Blade 1 X translation displacement, node 28, m
        200   -1.158E+02                                 F               0         Blade 1 Y translation displacement, node 28, m
        201   -1.740E+02                                 F               0         Blade 1 Z translation displacement, node 28, m
        202    8.113E-01,  2.254E-01, -5.394E-01         F               0         Blade 1 X orientation angle, node 1, rad
        203    5.829E-01, -3.831E-01,  7.166E-01         F               0         Blade 1 Y orientation angle, node 1, rad
        204   -4.510E-02, -8.958E-01, -4.422E-01         F               0         Blade 1 Z orientation angle, node 1, rad
        205    8.113E-01,  2.254E-01, -5.394E-01         F               0         Blade 1 X orientation angle, node 2, rad
        206    5.829E-01, -3.831E-01,  7.166E-01         F               0         Blade 1 Y orientation angle, node 2, rad
        207   -4.510E-02, -8.958E-01, -4.422E-01         F               0         Blade 1 Z orientation angle, node 2, rad
        208    9.263E-01,  1.282E-01, -3.542E-01         F               0         Blade 1 X orientation angle, node 3, rad
        209    3.740E-01, -4.256E-01,  8.240E-01         F               0         Blade 1 Y orientation angle, node 3, rad
        210   -4.510E-02, -8.958E-01, -4.422E-01         F               0         Blade 1 Z orientation angle, node 3, rad
        211    9.413E-01,  1.101E-01, -3.191E-01         F               0         Blade 1 X orientation angle, node 4, rad
        212    3.346E-01, -4.306E-01,  8.382E-01         F               0         Blade 1 Y orientation angle, node 4, rad
        213   -4.510E-02, -8.958E-01, -4.422E-01         F               0         Blade 1 Z orientation angle, node 4, rad
        214    9.519E-01,  9.580E-02, -2.911E-01         F               0         Blade 1 X orientation angle, node 5, rad
        215    3.032E-01, -4.340E-01,  8.484E-01         F               0         Blade 1 Y orientation angle, node 5, rad
        216   -4.510E-02, -8.958E-01, -4.422E-01         F               0         Blade 1 Z orientation angle, node 5, rad
        217    9.596E-01,  8.425E-02, -2.685E-01         F               0         Blade 1 X orientation angle, node 6, rad
        218    2.778E-01, -4.364E-01,  8.558E-01         F               0         Blade 1 Y orientation angle, node 6, rad
        219   -4.510E-02, -8.958E-01, -4.422E-01         F               0         Blade 1 Z orientation angle, node 6, rad
        220    9.654E-01,  7.471E-02, -2.498E-01         F               0         Blade 1 X orientation angle, node 7, rad
        221    2.568E-01, -4.381E-01,  8.614E-01         F               0         Blade 1 Y orientation angle, node 7, rad
        222   -4.510E-02, -8.958E-01, -4.422E-01         F               0         Blade 1 Z orientation angle, node 7, rad
        223    9.699E-01,  6.674E-02, -2.341E-01         F               0         Blade 1 X orientation angle, node 8, rad
        224    2.392E-01, -4.394E-01,  8.658E-01         F               0         Blade 1 Y orientation angle, node 8, rad
        225   -4.510E-02, -8.958E-01, -4.422E-01         F               0         Blade 1 Z orientation angle, node 8, rad
        226    9.735E-01,  5.999E-02, -2.208E-01         F               0         Blade 1 X orientation angle, node 9, rad
        227    2.243E-01, -4.404E-01,  8.693E-01         F               0         Blade 1 Y orientation angle, node 9, rad