
Linearized model: Predictions were generated on 08-Jan-2024 at 09:43:14 using OpenFAST, compiled as a 64-bit application using single precision at commit v3.5.1
 linked with  NWTC Subroutine Library; ElastoDyn; InflowWind; AeroDyn; ServoDyn; HydroDyn; MoorDyn (v2.0.0, 2023-09-18)

Description from the FAST input file: CCT-9 Campign 4 model. Input files to be run with OpenFAST 3.5.0. GitHub branch from Lu Wang (https://github.com/luwang00/openfast/tree/dev) compiled on March 7, 2023.

Simulation information:
   Simulation time:                  1004.9750 s
   Rotor Speed:                         0.7076 rad/s
   Azimuth:                             2.7067 rad
   Wind Speed:                          8.0000 m/s
   Number of continuous states:        22
   Number of discrete states:           0
   Number of constraint states:         0
   Number of inputs:                 1890
   Number of outputs:                  38
   Jacobians included in this file?    No

Order of continuous states:
   Row/Column Operating Point                     Rotating Frame? Derivative Order Description
   ---------- ---------------                     --------------- ---------------- -----------
          1    5.713E+00                                 F               2         Platform horizontal surge translation DOF (internal DOF index = DOF_Sg), m
          2   -4.766E-01                                 F               2         Platform horizontal sway translation DOF (internal DOF index = DOF_Sw), m
          3   -7.788E-02                                 F               2         Platform vertical heave translation DOF (internal DOF index = DOF_Hv), m
          4    4.392E-02                                 F               2         Platform roll tilt rotation DOF (internal DOF index = DOF_R), rad
          5    8.416E-02                                 F               2         Platform pitch tilt rotation DOF (internal DOF index = DOF_P), rad
          6    2.291E-03                                 F               2         Platform yaw rotation DOF (internal DOF index = DOF_Y), rad
          7    4.616E-01                                 F               2         1st tower fore-aft bending mode DOF (internal DOF index = DOF_TFA1), m
          8    1.718E-01                                 F               2         1st tower side-to-side bending mode DOF (internal DOF index = DOF_TSS1), m
          9    1.460E-03                                 F               2         2nd tower fore-aft bending mode DOF (internal DOF index = DOF_TFA2), m
         10    7.470E-05                                 F               2         2nd tower side-to-side bending mode DOF (internal DOF index = DOF_TSS2), m
         11    1.136E+00                                 F               2         Variable speed generator DOF (internal DOF index = DOF_GeAz), rad
         12   -1.068E-04                                 F               2         First time derivative of Platform horizontal surge translation DOF (internal DOF index = DOF_Sg), m/s
         13   -3.472E-04                                 F               2         First time derivative of Platform horizontal sway translation DOF (internal DOF index = DOF_Sw), m/s
         14   -2.834E-03                                 F               2         First time derivative of Platform vertical heave translation DOF (internal DOF index = DOF_Hv), m/s
         15   -1.889E-05                                 F               2         First time derivative of Platform roll tilt rotation DOF (internal DOF index = DOF_R), rad/s
         16    3.533E-06                                 F               2         First time derivative of Platform pitch tilt rotation DOF (internal DOF index = DOF_P), rad/s
         17    2.752E-06                                 F               2         First time derivative of Platform yaw rotation DOF (internal DOF index = DOF_Y), rad/s
         18   -3.361E-04                                 F               2         First time derivative of 1st tower fore-aft bending mode DOF (internal DOF index = DOF_TFA1), m/s
         19   -1.961E-04                                 F               2         First time derivative of 1st tower side-to-side bending mode DOF (internal DOF index = DOF_TSS1), m/s
         20    2.348E-06                                 F               2         First time derivative of 2nd tower fore-aft bending mode DOF (internal DOF index = DOF_TFA2), m/s
         21    2.746E-07                                 F               2         First time derivative of 2nd tower side-to-side bending mode DOF (internal DOF index = DOF_TSS2), m/s
         22    7.076E-01                                 F               2         First time derivative of Variable speed generator DOF (internal DOF index = DOF_GeAz), rad/s

Order of continuous state derivatives:
   Row/Column Operating Point                     Rotating Frame? Derivative Order Description
   ---------- ---------------                     --------------- ---------------- -----------
          1   -1.068E-04                                 F               2         First time derivative of Platform horizontal surge translation DOF (internal DOF index = DOF_Sg), m/s
          2   -3.472E-04                                 F               2         First time derivative of Platform horizontal sway translation DOF (internal DOF index = DOF_Sw), m/s
          3   -2.834E-03                                 F               2         First time derivative of Platform vertical heave translation DOF (internal DOF index = DOF_Hv), m/s
          4   -1.889E-05                                 F               2         First time derivative of Platform roll tilt rotation DOF (internal DOF index = DOF_R), rad/s
          5    3.533E-06                                 F               2         First time derivative of Platform pitch tilt rotation DOF (internal DOF index = DOF_P), rad/s
          6    2.752E-06                                 F               2         First time derivative of Platform yaw rotation DOF (internal DOF index = DOF_Y), rad/s
          7   -3.361E-04                                 F               2         First time derivative of 1st tower fore-aft bending mode DOF (internal DOF index = DOF_TFA1), m/s
          8   -1.961E-04                                 F               2         First time derivative of 1st tower side-to-side bending mode DOF (internal DOF index = DOF_TSS1), m/s
          9    2.348E-06                                 F               2         First time derivative of 2nd tower fore-aft bending mode DOF (internal DOF index = DOF_TFA2), m/s
         10    2.746E-07                                 F               2         First time derivative of 2nd tower side-to-side bending mode DOF (internal DOF index = DOF_TSS2), m/s
         11    7.076E-01                                 F               2         First time derivative of Variable speed generator DOF (internal DOF index = DOF_GeAz), rad/s
         12   -9.655E-05                                 F               2         First time derivative of First time derivative of Platform horizontal surge translation DOF (internal DOF index = DOF_Sg), m/s/s
         13   -3.382E-04                                 F               2         First time derivative of First time derivative of Platform horizontal sway translation DOF (internal DOF index = DOF_Sw), m/s/s
         14    3.660E-04                                 F               2         First time derivative of First time derivative of Platform vertical heave translation DOF (internal DOF index = DOF_Hv), m/s/s
         15    1.994E-05                                 F               2         First time derivative of First time derivative of Platform roll tilt rotation DOF (internal DOF index = DOF_R), rad/s/s
         16   -5.827E-06                                 F               2         First time derivative of First time derivative of Platform pitch tilt rotation DOF (internal DOF index = DOF_P), rad/s/s
         17    5.186E-07                                 F               2         First time derivative of First time derivative of Platform yaw rotation DOF (internal DOF index = DOF_Y), rad/s/s
         18    1.137E-03                                 F               2         First time derivative of First time derivative of 1st tower fore-aft bending mode DOF (internal DOF index = DOF_TFA1), m/s/s
         19   -3.110E-04                                 F               2         First time derivative of First time derivative of 1st tower side-to-side bending mode DOF (internal DOF index = DOF_TSS1), m/s/s
         20   -6.941E-06                                 F               2         First time derivative of First time derivative of 2nd tower fore-aft bending mode DOF (internal DOF index = DOF_TFA2), m/s/s
         21    6.229E-07                                 F               2         First time derivative of First time derivative of 2nd tower side-to-side bending mode DOF (internal DOF index = DOF_TSS2), m/s/s
         22    1.577E-04                                 F               2         First time derivative of First time derivative of Variable speed generator DOF (internal DOF index = DOF_GeAz), rad/s/s

Order of inputs:
     Column   Operating Point                     Rotating Frame? Derivative Order Description
   ---------- ---------------                     --------------- ---------------- -----------
          1    5.302E+01                                 F               0         Blade 1 X force, node 1, N
          2   -5.840E+01                                 F               0         Blade 1 Y force, node 1, N
          3    1.424E+01                                 F               0         Blade 1 Z force, node 1, N
          4    2.134E+02                                 F               0         Blade 1 X force, node 2, N
          5   -1.045E+02                                 F               0         Blade 1 Y force, node 2, N
          6    2.697E+00                                 F               0         Blade 1 Z force, node 2, N
          7    2.708E+02                                 F               0         Blade 1 X force, node 3, N
          8   -6.561E+01                                 F               0         Blade 1 Y force, node 3, N
          9   -2.461E+01                                 F               0         Blade 1 Z force, node 3, N
         10    3.510E+02                                 F               0         Blade 1 X force, node 4, N
         11   -3.990E+01                                 F               0         Blade 1 Y force, node 4, N
         12   -5.079E+01                                 F               0         Blade 1 Z force, node 4, N
         13    4.313E+02                                 F               0         Blade 1 X force, node 5, N
         14   -1.419E+01                                 F               0         Blade 1 Y force, node 5, N
         15   -7.698E+01                                 F               0         Blade 1 Z force, node 5, N
         16    5.115E+02                                 F               0         Blade 1 X force, node 6, N
         17    1.152E+01                                 F               0         Blade 1 Y force, node 6, N
         18   -1.032E+02                                 F               0         Blade 1 Z force, node 6, N
         19    5.918E+02                                 F               0         Blade 1 X force, node 7, N
         20    3.722E+01                                 F               0         Blade 1 Y force, node 7, N
         21   -1.294E+02                                 F               0         Blade 1 Z force, node 7, N
         22    6.720E+02                                 F               0         Blade 1 X force, node 8, N
         23    6.293E+01                                 F               0         Blade 1 Y force, node 8, N
         24   -1.555E+02                                 F               0         Blade 1 Z force, node 8, N
         25    7.523E+02                                 F               0         Blade 1 X force, node 9, N
         26    8.864E+01                                 F               0         Blade 1 Y force, node 9, N
         27   -1.817E+02                                 F               0         Blade 1 Z force, node 9, N
         28    8.325E+02                                 F               0         Blade 1 X force, node 10, N
         29    1.143E+02                                 F               0         Blade 1 Y force, node 10, N
         30   -2.079E+02                                 F               0         Blade 1 Z force, node 10, N
         31    9.128E+02                                 F               0         Blade 1 X force, node 11, N
         32    1.401E+02                                 F               0         Blade 1 Y force, node 11, N
         33   -2.341E+02                                 F               0         Blade 1 Z force, node 11, N
         34    9.930E+02                                 F               0         Blade 1 X force, node 12, N
         35    1.658E+02                                 F               0         Blade 1 Y force, node 12, N
         36   -2.603E+02                                 F               0         Blade 1 Z force, node 12, N
         37    1.073E+03                                 F               0         Blade 1 X force, node 13, N
         38    1.915E+02                                 F               0         Blade 1 Y force, node 13, N
         39   -2.865E+02                                 F               0         Blade 1 Z force, node 13, N
         40    1.154E+03                                 F               0         Blade 1 X force, node 14, N
         41    2.172E+02                                 F               0         Blade 1 Y force, node 14, N
         42   -3.127E+02                                 F               0         Blade 1 Z force, node 14, N
         43    1.234E+03                                 F               0         Blade 1 X force, node 15, N
         44    2.429E+02                                 F               0         Blade 1 Y force, node 15, N
         45   -3.388E+02                                 F               0         Blade 1 Z force, node 15, N
         46    1.314E+03                                 F               0         Blade 1 X force, node 16, N
         47    2.686E+02                                 F               0         Blade 1 Y force, node 16, N
         48   -3.650E+02                                 F               0         Blade 1 Z force, node 16, N
         49    1.618E+03                                 F               0         Blade 1 X force, node 17, N
         50    3.401E+02                                 F               0         Blade 1 Y force, node 17, N
         51   -4.534E+02                                 F               0         Blade 1 Z force, node 17, N
         52    1.247E+03                                 F               0         Blade 1 X force, node 18, N
         53    2.538E+02                                 F               0         Blade 1 Y force, node 18, N
         54   -3.459E+02                                 F               0         Blade 1 Z force, node 18, N
         55    1.546E+03                                 F               0         Blade 1 X force, node 19, N
         56    2.996E+02                                 F               0         Blade 1 Y force, node 19, N
         57   -4.226E+02                                 F               0         Blade 1 Z force, node 19, N
         58    1.331E+03                                 F               0         Blade 1 X force, node 20, N
         59    2.461E+02                                 F               0         Blade 1 Y force, node 20, N
         60   -3.589E+02                                 F               0         Blade 1 Z force, node 20, N
         61    1.987E+03                                 F               0         Blade 1 X force, node 21, N
         62    3.478E+02                                 F               0         Blade 1 Y force, node 21, N
         63   -5.275E+02                                 F               0         Blade 1 Z force, node 21, N
         64    1.771E+03                                 F               0         Blade 1 X force, node 22, N
         65    2.933E+02                                 F               0         Blade 1 Y force, node 22, N
         66   -4.632E+02                                 F               0         Blade 1 Z force, node 22, N
         67    1.835E+03                                 F               0         Blade 1 X force, node 23, N
         68    2.889E+02                                 F               0         Blade 1 Y force, node 23, N
         69   -4.736E+02                                 F               0         Blade 1 Z force, node 23, N
         70    1.931E+03                                 F               0         Blade 1 X force, node 24, N
         71    2.894E+02                                 F               0         Blade 1 Y force, node 24, N
         72   -4.924E+02                                 F               0         Blade 1 Z force, node 24, N
         73    1.994E+03                                 F               0         Blade 1 X force, node 25, N
         74    2.843E+02                                 F               0         Blade 1 Y force, node 25, N
         75   -5.023E+02                                 F               0         Blade 1 Z force, node 25, N
         76    2.068E+03                                 F               0         Blade 1 X force, node 26, N
         77    2.807E+02                                 F               0         Blade 1 Y force, node 26, N
         78   -5.150E+02                                 F               0         Blade 1 Z force, node 26, N
         79    2.495E+03                                 F               0         Blade 1 X force, node 27, N
         80    3.219E+02                                 F               0         Blade 1 Y force, node 27, N
         81   -6.143E+02                                 F               0         Blade 1 Z force, node 27, N
         82    1.861E+03                                 F               0         Blade 1 X force, node 28, N
         83    2.285E+02                                 F               0         Blade 1 Y force, node 28, N
         84   -4.534E+02                                 F               0         Blade 1 Z force, node 28, N
         85    2.288E+03                                 F               0         Blade 1 X force, node 29, N
         86    2.693E+02                                 F               0         Blade 1 Y force, node 29, N
         87   -5.526E+02                                 F               0         Blade 1 Z force, node 29, N
         88    1.956E+03                                 F               0         Blade 1 X force, node 30, N
         89    2.209E+02                                 F               0         Blade 1 Y force, node 30, N
         90   -4.685E+02                                 F               0         Blade 1 Z force, node 30, N
         91    2.841E+03                                 F               0         Blade 1 X force, node 31, N
         92    3.056E+02                                 F               0         Blade 1 Y force, node 31, N
         93   -6.741E+02                                 F               0         Blade 1 Z force, node 31, N
         94    2.508E+03                                 F               0         Blade 1 X force, node 32, N
         95    2.568E+02                                 F               0         Blade 1 Y force, node 32, N
         96   -5.897E+02                                 F               0         Blade 1 Z force, node 32, N
         97    2.581E+03                                 F               0         Blade 1 X force, node 33, N
         98    2.524E+02                                 F               0         Blade 1 Y force, node 33, N
         99   -6.019E+02                                 F               0         Blade 1 Z force, node 33, N
        100    2.654E+03                                 F               0         Blade 1 X force, node 34, N
        101    2.481E+02                                 F               0         Blade 1 Y force, node 34, N
        102   -6.141E+02                                 F               0         Blade 1 Z force, node 34, N
        103    2.727E+03                                 F               0         Blade 1 X force, node 35, N
        104    2.435E+02                                 F               0         Blade 1 Y force, node 35, N
        105   -6.263E+02                                 F               0         Blade 1 Z force, node 35, N
        106    2.800E+03                                 F               0         Blade 1 X force, node 36, N
        107    2.389E+02                                 F               0         Blade 1 Y force, node 36, N
        108   -6.383E+02                                 F               0         Blade 1 Z force, node 36, N
        109    3.362E+03                                 F               0         Blade 1 X force, node 37, N
        110    2.733E+02                                 F               0         Blade 1 Y force, node 37, N
        111   -7.607E+02                                 F               0         Blade 1 Z force, node 37, N
        112    2.457E+03                                 F               0         Blade 1 X force, node 38, N
        113    1.905E+02                                 F               0         Blade 1 Y force, node 38, N
        114   -5.521E+02                                 F               0         Blade 1 Z force, node 38, N
        115    3.019E+03                                 F               0         Blade 1 X force, node 39, N
        116    2.249E+02                                 F               0         Blade 1 Y force, node 39, N
        117   -6.746E+02                                 F               0         Blade 1 Z force, node 39, N
        118    2.581E+03                                 F               0         Blade 1 X force, node 40, N
        119    1.847E+02                                 F               0         Blade 1 Y force, node 40, N
        120   -5.735E+02                                 F               0         Blade 1 Z force, node 40, N
        121    3.677E+03                                 F               0         Blade 1 X force, node 41, N
        122    2.509E+02                                 F               0         Blade 1 Y force, node 41, N
        123   -8.119E+02                                 F               0         Blade 1 Z force, node 41, N
        124    3.238E+03                                 F               0         Blade 1 X force, node 42, N
        125    2.104E+02                                 F               0         Blade 1 Y force, node 42, N
        126   -7.105E+02                                 F               0         Blade 1 Z force, node 42, N
        127    3.310E+03                                 F               0         Blade 1 X force, node 43, N
        128    2.054E+02                                 F               0         Blade 1 Y force, node 43, N
        129   -7.222E+02                                 F               0         Blade 1 Z force, node 43, N
        130    3.399E+03                                 F               0         Blade 1 X force, node 44, N
        131    2.014E+02                                 F               0         Blade 1 Y force, node 44, N
        132   -7.379E+02                                 F               0         Blade 1 Z force, node 44, N
        133    3.436E+03                                 F               0         Blade 1 X force, node 45, N
        134    1.942E+02                                 F               0         Blade 1 Y force, node 45, N
        135   -7.418E+02                                 F               0         Blade 1 Z force, node 45, N
        136    3.526E+03                                 F               0         Blade 1 X force, node 46, N
        137    1.902E+02                                 F               0         Blade 1 Y force, node 46, N
        138   -7.574E+02                                 F               0         Blade 1 Z force, node 46, N
        139    4.229E+03                                 F               0         Blade 1 X force, node 47, N
        140    2.169E+02                                 F               0         Blade 1 Y force, node 47, N
        141   -9.039E+02                                 F               0         Blade 1 Z force, node 47, N
        142    3.038E+03                                 F               0         Blade 1 X force, node 48, N
        143    1.481E+02                                 F               0         Blade 1 Y force, node 48, N
        144   -6.460E+02                                 F               0         Blade 1 Z force, node 48, N
        145    3.741E+03                                 F               0         Blade 1 X force, node 49, N
        146    1.747E+02                                 F               0         Blade 1 Y force, node 49, N
        147   -7.924E+02                                 F               0         Blade 1 Z force, node 49, N
        148    3.206E+03                                 F               0         Blade 1 X force, node 50, N
        149    1.432E+02                                 F               0         Blade 1 Y force, node 50, N
        150   -6.763E+02                                 F               0         Blade 1 Z force, node 50, N
        151    4.491E+03                                 F               0         Blade 1 X force, node 51, N
        152    1.905E+02                                 F               0         Blade 1 Y force, node 51, N
        153   -9.432E+02                                 F               0         Blade 1 Z force, node 51, N
        154    3.957E+03                                 F               0         Blade 1 X force, node 52, N
        155    1.591E+02                                 F               0         Blade 1 Y force, node 52, N
        156   -8.274E+02                                 F               0         Blade 1 Z force, node 52, N
        157    4.030E+03                                 F               0         Blade 1 X force, node 53, N
        158    1.539E+02                                 F               0         Blade 1 Y force, node 53, N
        159   -8.391E+02                                 F               0         Blade 1 Z force, node 53, N
        160    4.147E+03                                 F               0         Blade 1 X force, node 54, N
        161    1.503E+02                                 F               0         Blade 1 Y force, node 54, N
        162   -8.603E+02                                 F               0         Blade 1 Z force, node 54, N
        163    4.129E+03                                 F               0         Blade 1 X force, node 55, N
        164    1.418E+02                                 F               0         Blade 1 Y force, node 55, N
        165   -8.532E+02                                 F               0         Blade 1 Z force, node 55, N
        166    4.246E+03                                 F               0         Blade 1 X force, node 56, N
        167    1.382E+02                                 F               0         Blade 1 Y force, node 56, N
        168   -8.742E+02                                 F               0         Blade 1 Z force, node 56, N
        169    5.100E+03                                 F               0         Blade 1 X force, node 57, N
        170    1.563E+02                                 F               0         Blade 1 Y force, node 57, N
        171   -1.046E+03                                 F               0         Blade 1 Z force, node 57, N
        172    3.608E+03                                 F               0         Blade 1 X force, node 58, N
        173    1.041E+02                                 F               0         Blade 1 Y force, node 58, N
        174   -7.373E+02                                 F               0         Blade 1 Z force, node 58, N
        175    4.462E+03                                 F               0         Blade 1 X force, node 59, N
        176    1.222E+02                                 F               0         Blade 1 Y force, node 59, N
        177   -9.091E+02                                 F               0         Blade 1 Z force, node 59, N
        178    3.840E+03                                 F               0         Blade 1 X force, node 60, N
        179    9.962E+01                                 F               0         Blade 1 Y force, node 60, N
        180   -7.800E+02                                 F               0         Blade 1 Z force, node 60, N
        181    5.301E+03                                 F               0         Blade 1 X force, node 61, N
        182    1.288E+02                                 F               0         Blade 1 Y force, node 61, N
        183   -1.073E+03                                 F               0         Blade 1 Z force, node 61, N
        184    4.676E+03                                 F               0         Blade 1 X force, node 62, N