
Linearized model: Predictions were generated on 08-Jan-2024 at 09:43:14 using OpenFAST, compiled as a 64-bit application using single precision at commit v3.5.1
 linked with  NWTC Subroutine Library; ElastoDyn; InflowWind; AeroDyn; ServoDyn; HydroDyn; MoorDyn (v2.0.0, 2023-09-18)

Description from the FAST input file: CCT-9 Campign 4 model. Input files to be run with OpenFAST 3.5.0. GitHub branch from Lu Wang (https://github.com/luwang00/openfast/tree/dev) compiled on March 7, 2023.

Simulation information:
   Simulation time:                  1008.7000 s
   Rotor Speed:                         0.7077 rad/s
   Azimuth:                             5.3431 rad
   Wind Speed:                          8.0000 m/s
   Number of continuous states:        22
   Number of discrete states:           0
   Number of constraint states:         0
   Number of inputs:                 1890
   Number of outputs:                  38
   Jacobians included in this file?    No

Order of continuous states:
   Row/Column Operating Point                     Rotating Frame? Derivative Order Description
   ---------- ---------------                     --------------- ---------------- -----------
          1    5.712E+00                                 F               2         Platform horizontal surge translation DOF (internal DOF index = DOF_Sg), m
          2   -4.793E-01                                 F               2         Platform horizontal sway translation DOF (internal DOF index = DOF_Sw), m
          3   -8.450E-02                                 F               2         Platform vertical heave translation DOF (internal DOF index = DOF_Hv), m
          4    4.392E-02                                 F               2         Platform roll tilt rotation DOF (internal DOF index = DOF_R), rad
          5    8.416E-02                                 F               2         Platform pitch tilt rotation DOF (internal DOF index = DOF_P), rad
          6    2.299E-03                                 F               2         Platform yaw rotation DOF (internal DOF index = DOF_Y), rad
          7    4.617E-01                                 F               2         1st tower fore-aft bending mode DOF (internal DOF index = DOF_TFA1), m
          8    1.703E-01                                 F               2         1st tower side-to-side bending mode DOF (internal DOF index = DOF_TSS1), m
          9    1.460E-03                                 F               2         2nd tower fore-aft bending mode DOF (internal DOF index = DOF_TFA2), m
         10    7.652E-05                                 F               2         2nd tower side-to-side bending mode DOF (internal DOF index = DOF_TSS2), m
         11    3.772E+00                                 F               2         Variable speed generator DOF (internal DOF index = DOF_GeAz), rad
         12   -3.044E-04                                 F               2         First time derivative of Platform horizontal surge translation DOF (internal DOF index = DOF_Sg), m/s
         13   -7.753E-04                                 F               2         First time derivative of Platform horizontal sway translation DOF (internal DOF index = DOF_Sw), m/s
         14   -3.525E-04                                 F               2         First time derivative of Platform vertical heave translation DOF (internal DOF index = DOF_Hv), m/s
         15   -1.413E-06                                 F               2         First time derivative of Platform roll tilt rotation DOF (internal DOF index = DOF_R), rad/s
         16   -8.418E-06                                 F               2         First time derivative of Platform pitch tilt rotation DOF (internal DOF index = DOF_P), rad/s
         17    2.422E-07                                 F               2         First time derivative of Platform yaw rotation DOF (internal DOF index = DOF_Y), rad/s
         18    6.971E-04                                 F               2         First time derivative of 1st tower fore-aft bending mode DOF (internal DOF index = DOF_TFA1), m/s
         19   -3.178E-04                                 F               2         First time derivative of 1st tower side-to-side bending mode DOF (internal DOF index = DOF_TSS1), m/s
         20   -3.872E-06                                 F               2         First time derivative of 2nd tower fore-aft bending mode DOF (internal DOF index = DOF_TFA2), m/s
         21    3.355E-07                                 F               2         First time derivative of 2nd tower side-to-side bending mode DOF (internal DOF index = DOF_TSS2), m/s
         22    7.077E-01                                 F               2         First time derivative of Variable speed generator DOF (internal DOF index = DOF_GeAz), rad/s

Order of continuous state derivatives:
   Row/Column Operating Point                     Rotating Frame? Derivative Order Description
   ---------- ---------------                     --------------- ---------------- -----------
          1   -3.044E-04                                 F               2         First time derivative of Platform horizontal surge translation DOF (internal DOF index = DOF_Sg), m/s
          2   -7.753E-04                                 F               2         First time derivative of Platform horizontal sway translation DOF (internal DOF index = DOF_Sw), m/s
          3   -3.525E-04                                 F               2         First time derivative of Platform vertical heave translation DOF (internal DOF index = DOF_Hv), m/s
          4   -1.413E-06                                 F               2         First time derivative of Platform roll tilt rotation DOF (internal DOF index = DOF_R), rad/s
          5   -8.418E-06                                 F               2         First time derivative of Platform pitch tilt rotation DOF (internal DOF index = DOF_P), rad/s
          6    2.422E-07                                 F               2         First time derivative of Platform yaw rotation DOF (internal DOF index = DOF_Y), rad/s
          7    6.971E-04                                 F               2         First time derivative of 1st tower fore-aft bending mode DOF (internal DOF index = DOF_TFA1), m/s
          8   -3.178E-04                                 F               2         First time derivative of 1st tower side-to-side bending mode DOF (internal DOF index = DOF_TSS1), m/s
          9   -3.872E-06                                 F               2         First time derivative of 2nd tower fore-aft bending mode DOF (internal DOF index = DOF_TFA2), m/s
         10    3.355E-07                                 F               2         First time derivative of 2nd tower side-to-side bending mode DOF (internal DOF index = DOF_TSS2), m/s
         11    7.077E-01                                 F               2         First time derivative of Variable speed generator DOF (internal DOF index = DOF_GeAz), rad/s
         12   -3.410E-05                                 F               2         First time derivative of First time derivative of Platform horizontal surge translation DOF (internal DOF index = DOF_Sg), m/s/s
         13    1.799E-04                                 F               2         First time derivative of First time derivative of Platform horizontal sway translation DOF (internal DOF index = DOF_Sw), m/s/s
         14    9.555E-04                                 F               2         First time derivative of First time derivative of Platform vertical heave translation DOF (internal DOF index = DOF_Hv), m/s/s
         15   -1.532E-05                                 F               2         First time derivative of First time derivative of Platform roll tilt rotation DOF (internal DOF index = DOF_R), rad/s/s
         16   -1.490E-06                                 F               2         First time derivative of First time derivative of Platform pitch tilt rotation DOF (internal DOF index = DOF_P), rad/s/s
         17   -2.847E-06                                 F               2         First time derivative of First time derivative of Platform yaw rotation DOF (internal DOF index = DOF_Y), rad/s/s
         18    3.199E-04                                 F               2         First time derivative of First time derivative of 1st tower fore-aft bending mode DOF (internal DOF index = DOF_TFA1), m/s/s
         19    4.548E-04                                 F               2         First time derivative of First time derivative of 1st tower side-to-side bending mode DOF (internal DOF index = DOF_TSS1), m/s/s
         20    3.137E-07                                 F               2         First time derivative of First time derivative of 2nd tower fore-aft bending mode DOF (internal DOF index = DOF_TFA2), m/s/s
         21    1.637E-07                                 F               2         First time derivative of First time derivative of 2nd tower side-to-side bending mode DOF (internal DOF index = DOF_TSS2), m/s/s
         22   -1.532E-04                                 F               2         First time derivative of First time derivative of Variable speed generator DOF (internal DOF index = DOF_GeAz), rad/s/s

Order of inputs:
     Column   Operating Point                     Rotating Frame? Derivative Order Description
   ---------- ---------------                     --------------- ---------------- -----------
          1    3.886E+01                                 F               0         Blade 1 X force, node 1, N
          2    1.950E+01                                 F               0         Blade 1 Y force, node 1, N
          3   -3.190E+01                                 F               0         Blade 1 Z force, node 1, N
          4    1.811E+02                                 F               0         Blade 1 X force, node 2, N
          5    4.089E+01                                 F               0         Blade 1 Y force, node 2, N
          6   -8.525E+01                                 F               0         Blade 1 Z force, node 2, N
          7    2.537E+02                                 F               0         Blade 1 X force, node 3, N
          8    1.858E+01                                 F               0         Blade 1 Y force, node 3, N
          9   -7.034E+01                                 F               0         Blade 1 Z force, node 3, N
         10    3.456E+02                                 F               0         Blade 1 X force, node 4, N
         11    8.730E-01                                 F               0         Blade 1 Y force, node 4, N
         12   -6.482E+01                                 F               0         Blade 1 Z force, node 4, N
         13    4.375E+02                                 F               0         Blade 1 X force, node 5, N
         14   -1.684E+01                                 F               0         Blade 1 Y force, node 5, N
         15   -5.929E+01                                 F               0         Blade 1 Z force, node 5, N
         16    5.294E+02                                 F               0         Blade 1 X force, node 6, N
         17   -3.455E+01                                 F               0         Blade 1 Y force, node 6, N
         18   -5.377E+01                                 F               0         Blade 1 Z force, node 6, N
         19    6.213E+02                                 F               0         Blade 1 X force, node 7, N
         20   -5.226E+01                                 F               0         Blade 1 Y force, node 7, N
         21   -4.824E+01                                 F               0         Blade 1 Z force, node 7, N
         22    7.132E+02                                 F               0         Blade 1 X force, node 8, N
         23   -6.997E+01                                 F               0         Blade 1 Y force, node 8, N
         24   -4.272E+01                                 F               0         Blade 1 Z force, node 8, N
         25    8.051E+02                                 F               0         Blade 1 X force, node 9, N
         26   -8.769E+01                                 F               0         Blade 1 Y force, node 9, N
         27   -3.719E+01                                 F               0         Blade 1 Z force, node 9, N
         28    8.970E+02                                 F               0         Blade 1 X force, node 10, N
         29   -1.054E+02                                 F               0         Blade 1 Y force, node 10, N
         30   -3.167E+01                                 F               0         Blade 1 Z force, node 10, N
         31    9.889E+02                                 F               0         Blade 1 X force, node 11, N
         32   -1.231E+02                                 F               0         Blade 1 Y force, node 11, N
         33   -2.614E+01                                 F               0         Blade 1 Z force, node 11, N
         34    1.081E+03                                 F               0         Blade 1 X force, node 12, N
         35   -1.408E+02                                 F               0         Blade 1 Y force, node 12, N
         36   -2.062E+01                                 F               0         Blade 1 Z force, node 12, N
         37    1.173E+03                                 F               0         Blade 1 X force, node 13, N
         38   -1.585E+02                                 F               0         Blade 1 Y force, node 13, N
         39   -1.509E+01                                 F               0         Blade 1 Z force, node 13, N
         40    1.265E+03                                 F               0         Blade 1 X force, node 14, N
         41   -1.762E+02                                 F               0         Blade 1 Y force, node 14, N
         42   -9.567E+00                                 F               0         Blade 1 Z force, node 14, N
         43    1.356E+03                                 F               0         Blade 1 X force, node 15, N
         44   -1.940E+02                                 F               0         Blade 1 Y force, node 15, N
         45   -4.042E+00                                 F               0         Blade 1 Z force, node 15, N
         46    1.448E+03                                 F               0         Blade 1 X force, node 16, N
         47   -2.117E+02                                 F               0         Blade 1 Y force, node 16, N
         48    1.483E+00                                 F               0         Blade 1 Z force, node 16, N
         49    1.786E+03                                 F               0         Blade 1 X force, node 17, N
         50   -2.648E+02                                 F               0         Blade 1 Y force, node 17, N
         51    6.614E+00                                 F               0         Blade 1 Z force, node 17, N
         52    1.365E+03                                 F               0         Blade 1 X force, node 18, N
         53   -1.946E+02                                 F               0         Blade 1 Y force, node 18, N
         54   -4.868E+00                                 F               0         Blade 1 Z force, node 18, N
         55    1.676E+03                                 F               0         Blade 1 X force, node 19, N
         56   -2.261E+02                                 F               0         Blade 1 Y force, node 19, N
         57   -2.221E+01                                 F               0         Blade 1 Z force, node 19, N
         58    1.430E+03                                 F               0         Blade 1 X force, node 20, N
         59   -1.828E+02                                 F               0         Blade 1 Y force, node 20, N
         60   -3.172E+01                                 F               0         Blade 1 Z force, node 20, N
         61    2.112E+03                                 F               0         Blade 1 X force, node 21, N
         62   -2.536E+02                                 F               0         Blade 1 Y force, node 21, N
         63   -6.779E+01                                 F               0         Blade 1 Z force, node 21, N
         64    1.866E+03                                 F               0         Blade 1 X force, node 22, N
         65   -2.102E+02                                 F               0         Blade 1 Y force, node 22, N
         66   -7.736E+01                                 F               0         Blade 1 Z force, node 22, N
         67    1.917E+03                                 F               0         Blade 1 X force, node 23, N
         68   -2.036E+02                                 F               0         Blade 1 Y force, node 23, N
         69   -9.514E+01                                 F               0         Blade 1 Z force, node 23, N
         70    2.003E+03                                 F               0         Blade 1 X force, node 24, N
         71   -2.006E+02                                 F               0         Blade 1 Y force, node 24, N
         72   -1.148E+02                                 F               0         Blade 1 Z force, node 24, N
         73    2.054E+03                                 F               0         Blade 1 X force, node 25, N
         74   -1.940E+02                                 F               0         Blade 1 Y force, node 25, N
         75   -1.325E+02                                 F               0         Blade 1 Z force, node 25, N
         76    2.116E+03                                 F               0         Blade 1 X force, node 26, N
         77   -1.886E+02                                 F               0         Blade 1 Y force, node 26, N
         78   -1.509E+02                                 F               0         Blade 1 Z force, node 26, N
         79    2.537E+03                                 F               0         Blade 1 X force, node 27, N
         80   -2.125E+02                                 F               0         Blade 1 Y force, node 27, N
         81   -1.981E+02                                 F               0         Blade 1 Z force, node 27, N
         82    1.882E+03                                 F               0         Blade 1 X force, node 28, N
         83   -1.483E+02                                 F               0         Blade 1 Y force, node 28, N
         84   -1.588E+02                                 F               0         Blade 1 Z force, node 28, N
         85    2.303E+03                                 F               0         Blade 1 X force, node 29, N
         86   -1.723E+02                                 F               0         Blade 1 Y force, node 29, N
         87   -2.060E+02                                 F               0         Blade 1 Z force, node 29, N
         88    1.960E+03                                 F               0         Blade 1 X force, node 30, N
         89   -1.392E+02                                 F               0         Blade 1 Y force, node 30, N
         90   -1.847E+02                                 F               0         Blade 1 Z force, node 30, N
         91    2.833E+03                                 F               0         Blade 1 X force, node 31, N
         92   -1.892E+02                                 F               0         Blade 1 Y force, node 31, N
         93   -2.823E+02                                 F               0         Blade 1 Z force, node 31, N
         94    2.489E+03                                 F               0         Blade 1 X force, node 32, N
         95   -1.561E+02                                 F               0         Blade 1 Y force, node 32, N
         96   -2.610E+02                                 F               0         Blade 1 Z force, node 32, N
         97    2.551E+03                                 F               0         Blade 1 X force, node 33, N
         98   -1.507E+02                                 F               0         Blade 1 Y force, node 33, N
         99   -2.792E+02                                 F               0         Blade 1 Z force, node 33, N
        100    2.614E+03                                 F               0         Blade 1 X force, node 34, N
        101   -1.453E+02                                 F               0         Blade 1 Y force, node 34, N
        102   -2.975E+02                                 F               0         Blade 1 Z force, node 34, N
        103    2.676E+03                                 F               0         Blade 1 X force, node 35, N
        104   -1.399E+02                                 F               0         Blade 1 Y force, node 35, N
        105   -3.159E+02                                 F               0         Blade 1 Z force, node 35, N
        106    2.738E+03                                 F               0         Blade 1 X force, node 36, N
        107   -1.345E+02                                 F               0         Blade 1 Y force, node 36, N
        108   -3.341E+02                                 F               0         Blade 1 Z force, node 36, N
        109    3.276E+03                                 F               0         Blade 1 X force, node 37, N
        110   -1.505E+02                                 F               0         Blade 1 Y force, node 37, N
        111   -4.130E+02                                 F               0         Blade 1 Z force, node 37, N
        112    2.387E+03                                 F               0         Blade 1 X force, node 38, N
        113   -1.025E+02                                 F               0         Blade 1 Y force, node 38, N
        114   -3.100E+02                                 F               0         Blade 1 Z force, node 38, N
        115    2.925E+03                                 F               0         Blade 1 X force, node 39, N
        116   -1.186E+02                                 F               0         Blade 1 Y force, node 39, N
        117   -3.890E+02                                 F               0         Blade 1 Z force, node 39, N
        118    2.495E+03                                 F               0         Blade 1 X force, node 40, N
        119   -9.525E+01                                 F               0         Blade 1 Y force, node 40, N
        120   -3.391E+02                                 F               0         Blade 1 Z force, node 40, N
        121    3.544E+03                                 F               0         Blade 1 X force, node 41, N
        122   -1.259E+02                                 F               0         Blade 1 Y force, node 41, N
        123   -4.937E+02                                 F               0         Blade 1 Z force, node 41, N
        124    3.113E+03                                 F               0         Blade 1 X force, node 42, N
        125   -1.026E+02                                 F               0         Blade 1 Y force, node 42, N
        126   -4.437E+02                                 F               0         Blade 1 Z force, node 42, N
        127    3.175E+03                                 F               0         Blade 1 X force, node 43, N
        128   -9.726E+01                                 F               0         Blade 1 Y force, node 43, N
        129   -4.619E+02                                 F               0         Blade 1 Z force, node 43, N
        130    3.254E+03                                 F               0         Blade 1 X force, node 44, N
        131   -9.239E+01                                 F               0         Blade 1 Y force, node 44, N
        132   -4.827E+02                                 F               0         Blade 1 Z force, node 44, N
        133    3.282E+03                                 F               0         Blade 1 X force, node 45, N
        134   -8.614E+01                                 F               0         Blade 1 Y force, node 45, N
        135   -4.958E+02                                 F               0         Blade 1 Z force, node 45, N
        136    3.361E+03                                 F               0         Blade 1 X force, node 46, N
        137   -8.131E+01                                 F               0         Blade 1 Y force, node 46, N
        138   -5.165E+02                                 F               0         Blade 1 Z force, node 46, N
        139    4.024E+03                                 F               0         Blade 1 X force, node 47, N
        140   -8.882E+01                                 F               0         Blade 1 Y force, node 47, N
        141   -6.292E+02                                 F               0         Blade 1 Z force, node 47, N
        142    2.885E+03                                 F               0         Blade 1 X force, node 48, N
        143   -5.789E+01                                 F               0         Blade 1 Y force, node 48, N
        144   -4.584E+02                                 F               0         Blade 1 Z force, node 48, N
        145    3.547E+03                                 F               0         Blade 1 X force, node 49, N
        146   -6.540E+01                                 F               0         Blade 1 Y force, node 49, N
        147   -5.710E+02                                 F               0         Blade 1 Z force, node 49, N
        148    3.035E+03                                 F               0         Blade 1 X force, node 50, N
        149   -5.110E+01                                 F               0         Blade 1 Y force, node 50, N
        150   -4.948E+02                                 F               0         Blade 1 Z force, node 50, N
        151    4.246E+03                                 F               0         Blade 1 X force, node 51, N
        152   -6.381E+01                                 F               0         Blade 1 Y force, node 51, N
        153   -7.018E+02                                 F               0         Blade 1 Z force, node 51, N
        154    3.735E+03                                 F               0         Blade 1 X force, node 52, N
        155   -4.958E+01                                 F               0         Blade 1 Y force, node 52, N
        156   -6.257E+02                                 F               0         Blade 1 Z force, node 52, N
        157    3.798E+03                                 F               0         Blade 1 X force, node 53, N
        158   -4.435E+01                                 F               0         Blade 1 Y force, node 53, N
        159   -6.439E+02                                 F               0         Blade 1 Z force, node 53, N
        160    3.903E+03                                 F               0         Blade 1 X force, node 54, N
        161   -3.952E+01                                 F               0         Blade 1 Y force, node 54, N
        162   -6.695E+02                                 F               0         Blade 1 Z force, node 54, N
        163    3.881E+03                                 F               0         Blade 1 X force, node 55, N
        164   -3.346E+01                                 F               0         Blade 1 Y force, node 55, N
        165   -6.731E+02                                 F               0         Blade 1 Z force, node 55, N
        166    3.986E+03                                 F               0         Blade 1 X force, node 56, N
        167   -2.863E+01                                 F               0         Blade 1 Y force, node 56, N
        168   -6.986E+02                                 F               0         Blade 1 Z force, node 56, N
        169    4.782E+03                                 F               0         Blade 1 X force, node 57, N
        170   -2.717E+01                                 F               0         Blade 1 Y force, node 57, N
        171   -8.471E+02                                 F               0         Blade 1 Z force, node 57, N
        172    3.379E+03                                 F               0         Blade 1 X force, node 58, N
        173   -1.438E+01                                 F               0         Blade 1 Y force, node 58, N
        174   -6.047E+02                                 F               0         Blade 1 Z force, node 58, N
        175    4.175E+03                                 F               0         Blade 1 X force, node 59, N
        176   -1.293E+01                                 F               0         Blade 1 Y force, node 59, N
        177   -7.533E+02                                 F               0         Blade 1 Z force, node 59, N
        178    3.589E+03                                 F               0         Blade 1 X force, node 60, N
        179   -6.977E+00                                 F               0         Blade 1 Y force, node 60, N
        180   -6.528E+02                                 F               0         Blade 1 Z force, node 60, N
        181    4.949E+03                                 F               0         Blade 1 X force, node 61, N
        182   -3.168E+00                                 F               0         Blade 1 Y force, node 61, N
        183   -9.084E+02                                 F               0         Blade 1 Z force, node 61, N
        184    4.362E+03                                 F               0         Blade 1 X force, node 62, N