
Linearized model: Predictions were generated on 08-Jan-2024 at 09:43:14 using OpenFAST, compiled as a 64-bit application using single precision at commit v3.5.1
 linked with  NWTC Subroutine Library; ElastoDyn; InflowWind; AeroDyn; ServoDyn; HydroDyn; MoorDyn (v2.0.0, 2023-09-18)

Description from the FAST input file: CCT-9 Campign 4 model. Input files to be run with OpenFAST 3.5.0. GitHub branch from Lu Wang (https://github.com/luwang00/openfast/tree/dev) compiled on March 7, 2023.

Simulation information:
   Simulation time:                  1000.5000 s
   Rotor Speed:                         0.7075 rad/s
   Azimuth:                             5.8241 rad
   Wind Speed:                          8.0000 m/s
   Number of continuous states:         0
   Number of discrete states:           0
   Number of constraint states:         0
   Number of inputs:                   54
   Number of outputs:                   0
   Jacobians included in this file?    No

Order of inputs:
     Column   Operating Point                     Rotating Frame? Derivative Order Description
   ---------- ---------------                     --------------- ---------------- -----------
          1    4.427E+00                                 F               0         CoupledKinematics X translation displacement, node 1, m
          2    3.243E-01                                 F               0         CoupledKinematics Y translation displacement, node 1, m
          3   -4.761E+00                                 F               0         CoupledKinematics Z translation displacement, node 1, m
          4    4.385E+00                                 F               0         CoupledKinematics X translation displacement, node 2, m
          5    2.218E-01                                 F               0         CoupledKinematics Y translation displacement, node 2, m
          6   -1.725E-01                                 F               0         CoupledKinematics Z translation displacement, node 2, m
          7    4.719E+00                                 F               0         CoupledKinematics X translation displacement, node 3, m
          8   -9.272E-02                                 F               0         CoupledKinematics Y translation displacement, node 3, m
          9    4.974E+00                                 F               0         CoupledKinematics Z translation displacement, node 3, m
         10    9.965E-01,  4.117E-03, -8.374E-02         F               0         CoupledKinematics X orientation angle, node 1, rad
         11   -4.323E-04,  9.990E-01,  4.397E-02         F               0         CoupledKinematics Y orientation angle, node 1, rad
         12    8.384E-02, -4.378E-02,  9.955E-01         F               0         CoupledKinematics Z orientation angle, node 1, rad
         13    9.965E-01,  4.117E-03, -8.374E-02         F               0         CoupledKinematics X orientation angle, node 2, rad
         14   -4.323E-04,  9.990E-01,  4.397E-02         F               0         CoupledKinematics Y orientation angle, node 2, rad
         15    8.384E-02, -4.378E-02,  9.955E-01         F               0         CoupledKinematics Z orientation angle, node 2, rad
         16    9.965E-01,  4.117E-03, -8.374E-02         F               0         CoupledKinematics X orientation angle, node 3, rad
         17   -4.323E-04,  9.990E-01,  4.397E-02         F               0         CoupledKinematics Y orientation angle, node 3, rad
         18    8.384E-02, -4.378E-02,  9.955E-01         F               0         CoupledKinematics Z orientation angle, node 3, rad
         19   -8.024E-06                                 F               0         CoupledKinematics X translation velocity, node 1, m/s
         20   -2.068E-04                                 F               0         CoupledKinematics Y translation velocity, node 1, m/s
         21   -1.207E-03                                 F               0         CoupledKinematics Z translation velocity, node 1, m/s
         22   -1.852E-04                                 F               0         CoupledKinematics X translation velocity, node 2, m/s
         23   -1.442E-04                                 F               0         CoupledKinematics Y translation velocity, node 2, m/s
         24   -2.640E-03                                 F               0         CoupledKinematics Z translation velocity, node 2, m/s
         25   -1.503E-04                                 F               0         CoupledKinematics X translation velocity, node 3, m/s
         26   -1.960E-04                                 F               0         CoupledKinematics Y translation velocity, node 3, m/s
         27   -2.563E-03                                 F               0         CoupledKinematics Z translation velocity, node 3, m/s
         28   -1.387E-05                                 F               0         CoupledKinematics X rotation velocity, node 1, rad/s
         29   -7.284E-06                                 F               0         CoupledKinematics Y rotation velocity, node 1, rad/s
         30    1.397E-06                                 F               0         CoupledKinematics Z rotation velocity, node 1, rad/s
         31   -1.387E-05                                 F               0         CoupledKinematics X rotation velocity, node 2, rad/s
         32   -7.284E-06                                 F               0         CoupledKinematics Y rotation velocity, node 2, rad/s
         33    1.397E-06                                 F               0         CoupledKinematics Z rotation velocity, node 2, rad/s
         34   -1.387E-05                                 F               0         CoupledKinematics X rotation velocity, node 3, rad/s
         35   -7.284E-06                                 F               0         CoupledKinematics Y rotation velocity, node 3, rad/s
         36    1.397E-06                                 F               0         CoupledKinematics Z rotation velocity, node 3, rad/s
         37   -6.514E-05                                 F               0         CoupledKinematics X translation acceleration, node 1, m/s^2
         38   -2.813E-04                                 F               0         CoupledKinematics Y translation acceleration, node 1, m/s^2
         39    2.306E-04                                 F               0         CoupledKinematics Z translation acceleration, node 1, m/s^2
         40    3.795E-05                                 F               0         CoupledKinematics X translation acceleration, node 2, m/s^2
         41   -1.730E-04                                 F               0         CoupledKinematics Y translation acceleration, node 2, m/s^2
         42   -2.183E-03                                 F               0         CoupledKinematics Z translation acceleration, node 2, m/s^2
         43    2.314E-05                                 F               0         CoupledKinematics X translation acceleration, node 3, m/s^2
         44    1.668E-05                                 F               0         CoupledKinematics Y translation acceleration, node 3, m/s^2
         45   -5.271E-04                                 F               0         CoupledKinematics Z translation acceleration, node 3, m/s^2
         46   -2.349E-05                                 F               0         CoupledKinematics X rotation acceleration, node 1, rad/s^2
         47    4.975E-06                                 F               0         CoupledKinematics Y rotation acceleration, node 1, rad/s^2
         48   -7.800E-07                                 F               0         CoupledKinematics Z rotation acceleration, node 1, rad/s^2
         49   -2.349E-05                                 F               0         CoupledKinematics X rotation acceleration, node 2, rad/s^2
         50    4.975E-06                                 F               0         CoupledKinematics Y rotation acceleration, node 2, rad/s^2
         51   -7.800E-07                                 F               0         CoupledKinematics Z rotation acceleration, node 2, rad/s^2
         52   -2.349E-05                                 F               0         CoupledKinematics X rotation acceleration, node 3, rad/s^2
         53    4.975E-06                                 F               0         CoupledKinematics Y rotation acceleration, node 3, rad/s^2
         54   -7.800E-07                                 F               0         CoupledKinematics Z rotation acceleration, node 3, rad/s^2


Linearized state matrices:

