
Linearized model: Predictions were generated on 08-Jan-2024 at 09:43:14 using OpenFAST, compiled as a 64-bit application using single precision at commit v3.5.1
 linked with  NWTC Subroutine Library; ElastoDyn; InflowWind; AeroDyn; ServoDyn; HydroDyn; MoorDyn (v2.0.0, 2023-09-18)

Description from the FAST input file: CCT-9 Campign 4 model. Input files to be run with OpenFAST 3.5.0. GitHub branch from Lu Wang (https://github.com/luwang00/openfast/tree/dev) compiled on March 7, 2023.

Simulation information:
   Simulation time:                  1000.5000 s
   Rotor Speed:                         0.7075 rad/s
   Azimuth:                             5.8241 rad
   Wind Speed:                          8.0000 m/s
   Number of continuous states:         0
   Number of discrete states:           0
   Number of constraint states:         0
   Number of inputs:                 1746
   Number of outputs:                   4
   Jacobians included in this file?    No

Order of inputs:
     Column   Operating Point                     Rotating Frame? Derivative Order Description
   ---------- ---------------                     --------------- ---------------- -----------
          1    7.251E+00                                 F               0         Tower X translation displacement, node 1, m
          2   -1.280E+00                                 F               0         Tower Y translation displacement, node 1, m
          3   -1.470E-01                                 F               0         Tower Z translation displacement, node 1, m
          4    8.293E+00                                 F               0         Tower X translation displacement, node 2, m
          5   -1.823E+00                                 F               0         Tower Y translation displacement, node 2, m
          6   -2.030E-01                                 F               0         Tower Z translation displacement, node 2, m
          7    9.351E+00                                 F               0         Tower X translation displacement, node 3, m
          8   -2.371E+00                                 F               0         Tower Y translation displacement, node 3, m
          9   -2.606E-01                                 F               0         Tower Z translation displacement, node 3, m
         10    1.042E+01                                 F               0         Tower X translation displacement, node 4, m
         11   -2.923E+00                                 F               0         Tower Y translation displacement, node 4, m
         12   -3.194E-01                                 F               0         Tower Z translation displacement, node 4, m
         13    1.150E+01                                 F               0         Tower X translation displacement, node 5, m
         14   -3.479E+00                                 F               0         Tower Y translation displacement, node 5, m
         15   -3.791E-01                                 F               0         Tower Z translation displacement, node 5, m
         16    1.259E+01                                 F               0         Tower X translation displacement, node 6, m
         17   -4.038E+00                                 F               0         Tower Y translation displacement, node 6, m
         18   -4.397E-01                                 F               0         Tower Z translation displacement, node 6, m
         19    1.368E+01                                 F               0         Tower X translation displacement, node 7, m
         20   -4.599E+00                                 F               0         Tower Y translation displacement, node 7, m
         21   -5.008E-01                                 F               0         Tower Z translation displacement, node 7, m
         22    1.477E+01                                 F               0         Tower X translation displacement, node 8, m
         23   -5.162E+00                                 F               0         Tower Y translation displacement, node 8, m
         24   -5.624E-01                                 F               0         Tower Z translation displacement, node 8, m
         25    1.587E+01                                 F               0         Tower X translation displacement, node 9, m
         26   -5.727E+00                                 F               0         Tower Y translation displacement, node 9, m
         27   -6.242E-01                                 F               0         Tower Z translation displacement, node 9, m
         28    1.697E+01                                 F               0         Tower X translation displacement, node 10, m
         29   -6.292E+00                                 F               0         Tower Y translation displacement, node 10, m
         30   -6.862E-01                                 F               0         Tower Z translation displacement, node 10, m
         31    1.807E+01                                 F               0         Tower X translation displacement, node 11, m
         32   -6.858E+00                                 F               0         Tower Y translation displacement, node 11, m
         33   -7.484E-01                                 F               0         Tower Z translation displacement, node 11, m
         34    9.965E-01,  4.117E-03, -8.374E-02         F               0         Tower X orientation angle, node 1, rad
         35   -4.323E-04,  9.990E-01,  4.397E-02         F               0         Tower Y orientation angle, node 1, rad
         36    8.384E-02, -4.378E-02,  9.955E-01         F               0         Tower Z orientation angle, node 1, rad
         37    9.964E-01,  4.170E-03, -8.495E-02         F               0         Tower X orientation angle, node 2, rad
         38   -3.987E-04,  9.990E-01,  4.437E-02         F               0         Tower Y orientation angle, node 2, rad
         39    8.505E-02, -4.418E-02,  9.954E-01         F               0         Tower Z orientation angle, node 2, rad
         40    9.963E-01,  4.217E-03, -8.599E-02         F               0         Tower X orientation angle, node 3, rad
         41   -3.681E-04,  9.990E-01,  4.473E-02         F               0         Tower Y orientation angle, node 3, rad
         42    8.609E-02, -4.453E-02,  9.953E-01         F               0         Tower Z orientation angle, node 3, rad
         43    9.962E-01,  4.255E-03, -8.684E-02         F               0         Tower X orientation angle, node 4, rad
         44   -3.411E-04,  9.990E-01,  4.504E-02         F               0         Tower Y orientation angle, node 4, rad
         45    8.695E-02, -4.484E-02,  9.952E-01         F               0         Tower Z orientation angle, node 4, rad
         46    9.962E-01,  4.286E-03, -8.753E-02         F               0         Tower X orientation angle, node 5, rad
         47   -3.178E-04,  9.990E-01,  4.530E-02         F               0         Tower Y orientation angle, node 5, rad
         48    8.763E-02, -4.510E-02,  9.951E-01         F               0         Tower Z orientation angle, node 5, rad
         49    9.961E-01,  4.310E-03, -8.805E-02         F               0         Tower X orientation angle, node 6, rad
         50   -2.981E-04,  9.990E-01,  4.553E-02         F               0         Tower Y orientation angle, node 6, rad
         51    8.815E-02, -4.532E-02,  9.951E-01         F               0         Tower Z orientation angle, node 6, rad
         52    9.961E-01,  4.327E-03, -8.842E-02         F               0         Tower X orientation angle, node 7, rad
         53   -2.824E-04,  9.990E-01,  4.571E-02         F               0         Tower Y orientation angle, node 7, rad
         54    8.853E-02, -4.550E-02,  9.950E-01         F               0         Tower Z orientation angle, node 7, rad
         55    9.961E-01,  4.339E-03, -8.868E-02         F               0         Tower X orientation angle, node 8, rad
         56   -2.701E-04,  9.989E-01,  4.584E-02         F               0         Tower Y orientation angle, node 8, rad
         57    8.878E-02, -4.564E-02,  9.950E-01         F               0         Tower Z orientation angle, node 8, rad
         58    9.960E-01,  4.346E-03, -8.884E-02         F               0         Tower X orientation angle, node 9, rad
         59   -2.612E-04,  9.989E-01,  4.595E-02         F               0         Tower Y orientation angle, node 9, rad
         60    8.894E-02, -4.574E-02,  9.950E-01         F               0         Tower Z orientation angle, node 9, rad
         61    9.960E-01,  4.351E-03, -8.893E-02         F               0         Tower X orientation angle, node 10, rad
         62   -2.553E-04,  9.989E-01,  4.601E-02         F               0         Tower Y orientation angle, node 10, rad
         63    8.903E-02, -4.581E-02,  9.950E-01         F               0         Tower Z orientation angle, node 10, rad
         64    9.960E-01,  4.353E-03, -8.897E-02         F               0         Tower X orientation angle, node 11, rad
         65   -2.521E-04,  9.989E-01,  4.605E-02         F               0         Tower Y orientation angle, node 11, rad
         66    8.907E-02, -4.584E-02,  9.950E-01         F               0         Tower Z orientation angle, node 11, rad
         67   -3.495E-04                                 F               0         Tower X translation velocity, node 1, m/s
         68    2.729E-04                                 F               0         Tower Y translation velocity, node 1, m/s
         69   -2.096E-03                                 F               0         Tower Z translation velocity, node 1, m/s
         70   -4.358E-04                                 F               0         Tower X translation velocity, node 2, m/s
         71    4.454E-04                                 F               0         Tower Y translation velocity, node 2, m/s
         72   -2.081E-03                                 F               0         Tower Z translation velocity, node 2, m/s
         73   -5.145E-04                                 F               0         Tower X translation velocity, node 3, m/s
         74    6.191E-04                                 F               0         Tower Y translation velocity, node 3, m/s
         75   -2.066E-03                                 F               0         Tower Z translation velocity, node 3, m/s
         76   -5.859E-04                                 F               0         Tower X translation velocity, node 4, m/s
         77    7.936E-04                                 F               0         Tower Y translation velocity, node 4, m/s
         78   -2.052E-03                                 F               0         Tower Z translation velocity, node 4, m/s
         79   -6.496E-04                                 F               0         Tower X translation velocity, node 5, m/s
         80    9.687E-04                                 F               0         Tower Y translation velocity, node 5, m/s
         81   -2.039E-03                                 F               0         Tower Z translation velocity, node 5, m/s
         82   -7.055E-04                                 F               0         Tower X translation velocity, node 6, m/s
         83    1.144E-03                                 F               0         Tower Y translation velocity, node 6, m/s
         84   -2.026E-03                                 F               0         Tower Z translation velocity, node 6, m/s
         85   -7.544E-04                                 F               0         Tower X translation velocity, node 7, m/s
         86    1.320E-03                                 F               0         Tower Y translation velocity, node 7, m/s
         87   -2.013E-03                                 F               0         Tower Z translation velocity, node 7, m/s
         88   -7.962E-04                                 F               0         Tower X translation velocity, node 8, m/s
         89    1.496E-03                                 F               0         Tower Y translation velocity, node 8, m/s
         90   -2.002E-03                                 F               0         Tower Z translation velocity, node 8, m/s
         91   -8.317E-04                                 F               0         Tower X translation velocity, node 9, m/s
         92    1.673E-03                                 F               0         Tower Y translation velocity, node 9, m/s
         93   -1.990E-03                                 F               0         Tower Z translation velocity, node 9, m/s
         94   -8.624E-04                                 F               0         Tower X translation velocity, node 10, m/s
         95    1.849E-03                                 F               0         Tower Y translation velocity, node 10, m/s
         96   -1.980E-03                                 F               0         Tower Z translation velocity, node 10, m/s
         97   -8.898E-04                                 F               0         Tower X translation velocity, node 11, m/s
         98    2.025E-03                                 F               0         Tower Y translation velocity, node 11, m/s
         99   -1.969E-03                                 F               0         Tower Z translation velocity, node 11, m/s
        100    1.881E+01                                 F               0         Hub X translation displacement, node 1, m
        101   -7.265E+00                                 F               0         Hub Y translation displacement, node 1, m
        102    1.730E-01                                 F               0         Hub Z translation displacement, node 1, m
        103    9.813E-01,  9.121E-03, -1.925E-01         F               0         Hub X orientation angle, node 1, rad
        104   -8.562E-02,  9.155E-01, -3.931E-01         F               0         Hub Y orientation angle, node 1, rad
        105    1.726E-01,  4.022E-01,  8.991E-01         F               0         Hub Z orientation angle, node 1, rad
        106    6.943E-01                                 F               0         Hub X rotation velocity, node 1, rad/s
        107    6.451E-03                                 F               0         Hub Y rotation velocity, node 1, rad/s
        108   -1.362E-01                                 F               0         Hub Z rotation velocity, node 1, rad/s
        109    9.834E-01, -1.804E-02, -1.807E-01         F               0         Blade root 1 X orientation angle, node 1, rad
        110   -5.647E-02,  9.154E-01, -3.986E-01         F               0         Blade root 1 Y orientation angle, node 1, rad
        111    1.726E-01,  4.022E-01,  8.991E-01         F               0         Blade root 1 Z orientation angle, node 1, rad
        112    9.751E-01,  1.236E-02, -2.213E-01         F               0         Blade root 2 X orientation angle, node 1, rad
        113    2.213E-01, -1.091E-01,  9.691E-01         F               0         Blade root 2 Y orientation angle, node 1, rad
        114   -1.217E-02, -9.940E-01, -1.091E-01         F               0         Blade root 2 Z orientation angle, node 1, rad
        115    9.840E-01,  3.303E-02, -1.751E-01         F               0         Blade root 3 X orientation angle, node 1, rad
        116   -7.754E-02, -8.054E-01, -5.876E-01         F               0         Blade root 3 Y orientation angle, node 1, rad
        117   -1.605E-01,  5.917E-01, -7.900E-01         F               0         Blade root 3 Z orientation angle, node 1, rad
        118    1.919E+01                                 F               0         Blade 1 X translation displacement, node 1, m
        119   -5.037E+00                                 F               0         Blade 1 Y translation displacement, node 1, m
        120   -3.555E-01                                 F               0         Blade 1 Z translation displacement, node 1, m
        121    1.928E+01                                 F               0         Blade 1 X translation displacement, node 2, m
        122   -4.500E+00                                 F               0         Blade 1 Y translation displacement, node 2, m
        123   -4.828E-01                                 F               0         Blade 1 Z translation displacement, node 2, m
        124    2.052E+01                                 F               0         Blade 1 X translation displacement, node 3, m
        125    2.801E+00                                 F               0         Blade 1 Y translation displacement, node 3, m
        126   -2.214E+00                                 F               0         Blade 1 Z translation displacement, node 3, m
        127    2.078E+01                                 F               0         Blade 1 X translation displacement, node 4, m
        128    4.356E+00                                 F               0         Blade 1 Y translation displacement, node 4, m
        129   -2.583E+00                                 F               0         Blade 1 Z translation displacement, node 4, m
        130    2.105E+01                                 F               0         Blade 1 X translation displacement, node 5, m
        131    5.912E+00                                 F               0         Blade 1 Y translation displacement, node 5, m
        132   -2.952E+00                                 F               0         Blade 1 Z translation displacement, node 5, m
        133    2.131E+01                                 F               0         Blade 1 X translation displacement, node 6, m
        134    7.468E+00                                 F               0         Blade 1 Y translation displacement, node 6, m
        135   -3.321E+00                                 F               0         Blade 1 Z translation displacement, node 6, m
        136    2.157E+01                                 F               0         Blade 1 X translation displacement, node 7, m
        137    9.023E+00                                 F               0         Blade 1 Y translation displacement, node 7, m
        138   -3.690E+00                                 F               0         Blade 1 Z translation displacement, node 7, m
        139    2.184E+01                                 F               0         Blade 1 X translation displacement, node 8, m
        140    1.058E+01                                 F               0         Blade 1 Y translation displacement, node 8, m
        141   -4.059E+00                                 F               0         Blade 1 Z translation displacement, node 8, m
        142    2.210E+01                                 F               0         Blade 1 X translation displacement, node 9, m
        143    1.213E+01                                 F               0         Blade 1 Y translation displacement, node 9, m
        144   -4.428E+00                                 F               0         Blade 1 Z translation displacement, node 9, m
        145    2.236E+01                                 F               0         Blade 1 X translation displacement, node 10, m
        146    1.369E+01                                 F               0         Blade 1 Y translation displacement, node 10, m
        147   -4.797E+00                                 F               0         Blade 1 Z translation displacement, node 10, m
        148    2.263E+01                                 F               0         Blade 1 X translation displacement, node 11, m
        149    1.525E+01                                 F               0         Blade 1 Y translation displacement, node 11, m
        150   -5.166E+00                                 F               0         Blade 1 Z translation displacement, node 11, m
        151    2.289E+01                                 F               0         Blade 1 X translation displacement, node 12, m
        152    1.680E+01                                 F               0         Blade 1 Y translation displacement, node 12, m
        153   -5.535E+00                                 F               0         Blade 1 Z translation displacement, node 12, m
        154    2.315E+01                                 F               0         Blade 1 X translation displacement, node 13, m
        155    1.836E+01                                 F               0         Blade 1 Y translation displacement, node 13, m
        156   -5.904E+00                                 F               0         Blade 1 Z translation displacement, node 13, m
        157    2.342E+01                                 F               0         Blade 1 X translation displacement, node 14, m
        158    1.991E+01                                 F               0         Blade 1 Y translation displacement, node 14, m
        159   -6.273E+00                                 F               0         Blade 1 Z translation displacement, node 14, m
        160    2.368E+01                                 F               0         Blade 1 X translation displacement, node 15, m
        161    2.147E+01                                 F               0         Blade 1 Y translation displacement, node 15, m
        162   -6.642E+00                                 F               0         Blade 1 Z translation displacement, node 15, m
        163    2.394E+01                                 F               0         Blade 1 X translation displacement, node 16, m
        164    2.302E+01                                 F               0         Blade 1 Y translation displacement, node 16, m
        165   -7.011E+00                                 F               0         Blade 1 Z translation displacement, node 16, m
        166    2.421E+01                                 F               0         Blade 1 X translation displacement, node 17, m
        167    2.458E+01                                 F               0         Blade 1 Y translation displacement, node 17, m
        168   -7.380E+00                                 F               0         Blade 1 Z translation displacement, node 17, m
        169    2.447E+01                                 F               0         Blade 1 X translation displacement, node 18, m
        170    2.614E+01                                 F               0         Blade 1 Y translation displacement, node 18, m
        171   -7.749E+00                                 F               0         Blade 1 Z translation displacement, node 18, m
        172    2.473E+01                                 F               0         Blade 1 X translation displacement, node 19, m
        173    2.769E+01                                 F               0         Blade 1 Y translation displacement, node 19, m
        174   -8.118E+00                                 F               0         Blade 1 Z translation displacement, node 19, m
        175    2.500E+01                                 F               0         Blade 1 X translation displacement, node 20, m
        176    2.925E+01                                 F               0         Blade 1 Y translation displacement, node 20, m
        177   -8.487E+00                                 F               0         Blade 1 Z translation displacement, node 20, m
        178    2.526E+01                                 F               0         Blade 1 X translation displacement, node 21, m
        179    3.080E+01                                 F               0         Blade 1 Y translation displacement, node 21, m
        180   -8.856E+00                                 F               0         Blade 1 Z translation displacement, node 21, m
        181    2.552E+01                                 F               0         Blade 1 X translation displacement, node 22, m
        182    3.236E+01                                 F               0         Blade 1 Y translation displacement, node 22, m
        183   -9.225E+00                                 F               0         Blade 1 Z translation displacement, node 22, m
        184    2.579E+01                                 F               0         Blade 1 X translation displacement, node 23, m
        185    3.391E+01                                 F               0         Blade 1 Y translation displacement, node 23, m
        186   -9.594E+00                                 F               0         Blade 1 Z translation displacement, node 23, m
        187    2.605E+01                                 F               0         Blade 1 X translation displacement, node 24, m
        188    3.547E+01                                 F               0         Blade 1 Y translation displacement, node 24, m
        189   -9.963E+00                                 F               0         Blade 1 Z translation displacement, node 24, m
        190    2.631E+01                                 F               0         Blade 1 X translation displacement, node 25, m
        191    3.702E+01                                 F               0         Blade 1 Y translation displacement, node 25, m
        192   -1.033E+01                                 F               0         Blade 1 Z translation displacement, node 25, m
        193    2.658E+01                                 F               0         Blade 1 X translation displacement, node 26, m
        194    3.858E+01                                 F               0         Blade 1 Y translation displacement, node 26, m
        195   -1.070E+01                                 F               0         Blade 1 Z translation displacement, node 26, m
        196    2.684E+01                                 F               0         Blade 1 X translation displacement, node 27, m
        197    4.014E+01                                 F               0         Blade 1 Y translation displacement, node 27, m
        198   -1.107E+01                                 F               0         Blade 1 Z translation displacement, node 27, m
        199    2.706E+01                                 F               0         Blade 1 X translation displacement, node 28, m
        200    4.145E+01                                 F               0         Blade 1 Y translation displacement, node 28, m
        201   -1.138E+01                                 F               0         Blade 1 Z translation displacement, node 28, m
        202    9.009E-01, -4.335E-01,  2.093E-02         F               0         Blade 1 X orientation angle, node 1, rad
        203    3.982E-01,  8.064E-01, -4.372E-01         F               0         Blade 1 Y orientation angle, node 1, rad
        204    1.726E-01,  4.022E-01,  8.991E-01         F               0         Blade 1 Z orientation angle, node 1, rad
        205    9.009E-01, -4.335E-01,  2.093E-02         F               0         Blade 1 X orientation angle, node 2, rad
        206    3.982E-01,  8.064E-01, -4.372E-01         F               0         Blade 1 Y orientation angle, node 2, rad
        207    1.726E-01,  4.022E-01,  8.991E-01         F               0         Blade 1 Z orientation angle, node 2, rad
        208    9.696E-01, -2.300E-01, -8.328E-02         F               0         Blade 1 X orientation angle, node 3, rad
        209    1.733E-01,  8.862E-01, -4.297E-01         F               0         Blade 1 Y orientation angle, node 3, rad
        210    1.726E-01,  4.022E-01,  8.991E-01         F               0         Blade 1 Z orientation angle, node 3, rad
        211    9.761E-01, -1.924E-01, -1.014E-01         F               0         Blade 1 X orientation angle, node 4, rad
        212    1.322E-01,  8.951E-01, -4.258E-01         F               0         Blade 1 Y orientation angle, node 4, rad
        213    1.726E-01,  4.022E-01,  8.991E-01         F               0         Blade 1 Z orientation angle, node 4, rad
        214    9.799E-01, -1.626E-01, -1.154E-01         F               0         Blade 1 X orientation angle, node 5, rad
        215    9.977E-02,  9.010E-01, -4.222E-01         F               0         Blade 1 Y orientation angle, node 5, rad
        216    1.726E-01,  4.022E-01,  8.991E-01         F               0         Blade 1 Z orientation angle, node 5, rad
        217    9.822E-01, -1.386E-01, -1.266E-01         F               0         Blade 1 X orientation angle, node 6, rad
        218    7.374E-02,  9.050E-01, -4.190E-01         F               0         Blade 1 Y orientation angle, node 6, rad
        219    1.726E-01,  4.022E-01,  8.991E-01         F               0         Blade 1 Z orientation angle, node 6, rad
        220    9.836E-01, -1.189E-01, -1.357E-01         F               0         Blade 1 X orientation angle, node 7, rad
        221    5.229E-02,  9.078E-01, -4.161E-01         F               0         Blade 1 Y orientation angle, node 7, rad
        222    1.726E-01,  4.022E-01,  8.991E-01         F               0         Blade 1 Z orientation angle, node 7, rad
        223    9.844E-01, -1.024E-01, -1.432E-01         F               0         Blade 1 X orientation angle, node 8, rad
        224    3.443E-02,  9.098E-01, -4.136E-01         F               0         Blade 1 Y orientation angle, node 8, rad
        225    1.726E-01,  4.022E-01,  8.991E-01         F               0         Blade 1 Z orientation angle, node 8, rad
        226    9.848E-01, -8.838E-02, -1.495E-01         F               0         Blade 1 X orientation angle, node 9, rad
        227    1.931E-02,  9.113E-01, -4.113E-01         F               0         Blade 1 Y orientation angle, node 9, rad