
Linearized model: Predictions were generated on 08-Jan-2024 at 09:43:14 using OpenFAST, compiled as a 64-bit application using single precision at commit v3.5.1
 linked with  NWTC Subroutine Library; ElastoDyn; InflowWind; AeroDyn; ServoDyn; HydroDyn; MoorDyn (v2.0.0, 2023-09-18)

Description from the FAST input file: CCT-9 Campign 4 model. Input files to be run with OpenFAST 3.5.0. GitHub branch from Lu Wang (https://github.com/luwang00/openfast/tree/dev) compiled on March 7, 2023.

Simulation information:
   Simulation time:                  1001.5000 s
   Rotor Speed:                         0.7074 rad/s
   Azimuth:                             0.2484 rad
   Wind Speed:                          8.0000 m/s
   Number of continuous states:        22
   Number of discrete states:           0
   Number of constraint states:         0
   Number of inputs:                 1890
   Number of outputs:                  38
   Jacobians included in this file?    No

Order of continuous states:
   Row/Column Operating Point                     Rotating Frame? Derivative Order Description
   ---------- ---------------                     --------------- ---------------- -----------
          1    5.713E+00                                 F               2         Platform horizontal surge translation DOF (internal DOF index = DOF_Sg), m
          2   -4.768E-01                                 F               2         Platform horizontal sway translation DOF (internal DOF index = DOF_Sw), m
          3   -6.724E-02                                 F               2         Platform vertical heave translation DOF (internal DOF index = DOF_Hv), m
          4    4.405E-02                                 F               2         Platform roll tilt rotation DOF (internal DOF index = DOF_R), rad
          5    8.416E-02                                 F               2         Platform pitch tilt rotation DOF (internal DOF index = DOF_P), rad
          6    2.286E-03                                 F               2         Platform yaw rotation DOF (internal DOF index = DOF_Y), rad
          7    4.620E-01                                 F               2         1st tower fore-aft bending mode DOF (internal DOF index = DOF_TFA1), m
          8    1.713E-01                                 F               2         1st tower side-to-side bending mode DOF (internal DOF index = DOF_TSS1), m
          9    1.458E-03                                 F               2         2nd tower fore-aft bending mode DOF (internal DOF index = DOF_TFA2), m
         10    7.650E-05                                 F               2         2nd tower side-to-side bending mode DOF (internal DOF index = DOF_TSS2), m
         11    4.961E+00                                 F               2         Variable speed generator DOF (internal DOF index = DOF_GeAz), rad
         12   -1.590E-04                                 F               2         First time derivative of Platform horizontal surge translation DOF (internal DOF index = DOF_Sg), m/s
         13    1.678E-04                                 F               2         First time derivative of Platform horizontal sway translation DOF (internal DOF index = DOF_Sw), m/s
         14   -2.781E-03                                 F               2         First time derivative of Platform vertical heave translation DOF (internal DOF index = DOF_Hv), m/s
         15   -3.416E-05                                 F               2         First time derivative of Platform roll tilt rotation DOF (internal DOF index = DOF_R), rad/s
         16   -2.729E-06                                 F               2         First time derivative of Platform pitch tilt rotation DOF (internal DOF index = DOF_P), rad/s
         17    1.513E-06                                 F               2         First time derivative of Platform yaw rotation DOF (internal DOF index = DOF_Y), rad/s
         18   -4.320E-04                                 F               2         First time derivative of 1st tower fore-aft bending mode DOF (internal DOF index = DOF_TFA1), m/s
         19    8.220E-05                                 F               2         First time derivative of 1st tower side-to-side bending mode DOF (internal DOF index = DOF_TSS1), m/s
         20    9.614E-07                                 F               2         First time derivative of 2nd tower fore-aft bending mode DOF (internal DOF index = DOF_TFA2), m/s
         21   -5.204E-07                                 F               2         First time derivative of 2nd tower side-to-side bending mode DOF (internal DOF index = DOF_TSS2), m/s
         22    7.074E-01                                 F               2         First time derivative of Variable speed generator DOF (internal DOF index = DOF_GeAz), rad/s

Order of continuous state derivatives:
   Row/Column Operating Point                     Rotating Frame? Derivative Order Description
   ---------- ---------------                     --------------- ---------------- -----------
          1   -1.590E-04                                 F               2         First time derivative of Platform horizontal surge translation DOF (internal DOF index = DOF_Sg), m/s
          2    1.678E-04                                 F               2         First time derivative of Platform horizontal sway translation DOF (internal DOF index = DOF_Sw), m/s
          3   -2.781E-03                                 F               2         First time derivative of Platform vertical heave translation DOF (internal DOF index = DOF_Hv), m/s
          4   -3.416E-05                                 F               2         First time derivative of Platform roll tilt rotation DOF (internal DOF index = DOF_R), rad/s
          5   -2.729E-06                                 F               2         First time derivative of Platform pitch tilt rotation DOF (internal DOF index = DOF_P), rad/s
          6    1.513E-06                                 F               2         First time derivative of Platform yaw rotation DOF (internal DOF index = DOF_Y), rad/s
          7   -4.320E-04                                 F               2         First time derivative of 1st tower fore-aft bending mode DOF (internal DOF index = DOF_TFA1), m/s
          8    8.220E-05                                 F               2         First time derivative of 1st tower side-to-side bending mode DOF (internal DOF index = DOF_TSS1), m/s
          9    9.614E-07                                 F               2         First time derivative of 2nd tower fore-aft bending mode DOF (internal DOF index = DOF_TFA2), m/s
         10   -5.204E-07                                 F               2         First time derivative of 2nd tower side-to-side bending mode DOF (internal DOF index = DOF_TSS2), m/s
         11    7.074E-01                                 F               2         First time derivative of Variable speed generator DOF (internal DOF index = DOF_GeAz), rad/s
         12    3.053E-06                                 F               2         First time derivative of First time derivative of Platform horizontal surge translation DOF (internal DOF index = DOF_Sg), m/s/s
         13    1.015E-04                                 F               2         First time derivative of First time derivative of Platform horizontal sway translation DOF (internal DOF index = DOF_Sw), m/s/s
         14   -5.026E-04                                 F               2         First time derivative of First time derivative of Platform vertical heave translation DOF (internal DOF index = DOF_Hv), m/s/s
         15   -1.618E-05                                 F               2         First time derivative of First time derivative of Platform roll tilt rotation DOF (internal DOF index = DOF_R), rad/s/s
         16    1.253E-06                                 F               2         First time derivative of First time derivative of Platform pitch tilt rotation DOF (internal DOF index = DOF_P), rad/s/s
         17    3.995E-07                                 F               2         First time derivative of First time derivative of Platform yaw rotation DOF (internal DOF index = DOF_Y), rad/s/s
         18    1.565E-04                                 F               2         First time derivative of First time derivative of 1st tower fore-aft bending mode DOF (internal DOF index = DOF_TFA1), m/s/s
         19    4.589E-07                                 F               2         First time derivative of First time derivative of 1st tower side-to-side bending mode DOF (internal DOF index = DOF_TSS1), m/s/s
         20   -1.014E-06                                 F               2         First time derivative of First time derivative of 2nd tower fore-aft bending mode DOF (internal DOF index = DOF_TFA2), m/s/s
         21   -1.061E-06                                 F               2         First time derivative of First time derivative of 2nd tower side-to-side bending mode DOF (internal DOF index = DOF_TSS2), m/s/s
         22   -1.023E-04                                 F               2         First time derivative of First time derivative of Variable speed generator DOF (internal DOF index = DOF_GeAz), rad/s/s

Order of inputs:
     Column   Operating Point                     Rotating Frame? Derivative Order Description
   ---------- ---------------                     --------------- ---------------- -----------
          1    4.971E+01                                 F               0         Blade 1 X force, node 1, N
          2    5.578E+01                                 F               0         Blade 1 Y force, node 1, N
          3    7.297E+00                                 F               0         Blade 1 Z force, node 1, N
          4    2.038E+02                                 F               0         Blade 1 X force, node 2, N
          5    1.046E+02                                 F               0         Blade 1 Y force, node 2, N
          6   -8.319E+00                                 F               0         Blade 1 Z force, node 2, N
          7    2.580E+02                                 F               0         Blade 1 X force, node 3, N
          8    6.876E+01                                 F               0         Blade 1 Y force, node 3, N
          9   -3.016E+01                                 F               0         Blade 1 Z force, node 3, N
         10    3.339E+02                                 F               0         Blade 1 X force, node 4, N
         11    4.585E+01                                 F               0         Blade 1 Y force, node 4, N
         12   -5.232E+01                                 F               0         Blade 1 Z force, node 4, N
         13    4.098E+02                                 F               0         Blade 1 X force, node 5, N
         14    2.293E+01                                 F               0         Blade 1 Y force, node 5, N
         15   -7.449E+01                                 F               0         Blade 1 Z force, node 5, N
         16    4.857E+02                                 F               0         Blade 1 X force, node 6, N
         17    1.275E-02                                 F               0         Blade 1 Y force, node 6, N
         18   -9.666E+01                                 F               0         Blade 1 Z force, node 6, N
         19    5.616E+02                                 F               0         Blade 1 X force, node 7, N
         20   -2.290E+01                                 F               0         Blade 1 Y force, node 7, N
         21   -1.188E+02                                 F               0         Blade 1 Z force, node 7, N
         22    6.375E+02                                 F               0         Blade 1 X force, node 8, N
         23   -4.582E+01                                 F               0         Blade 1 Y force, node 8, N
         24   -1.410E+02                                 F               0         Blade 1 Z force, node 8, N
         25    7.134E+02                                 F               0         Blade 1 X force, node 9, N
         26   -6.874E+01                                 F               0         Blade 1 Y force, node 9, N
         27   -1.632E+02                                 F               0         Blade 1 Z force, node 9, N
         28    7.893E+02                                 F               0         Blade 1 X force, node 10, N
         29   -9.165E+01                                 F               0         Blade 1 Y force, node 10, N
         30   -1.853E+02                                 F               0         Blade 1 Z force, node 10, N
         31    8.652E+02                                 F               0         Blade 1 X force, node 11, N
         32   -1.146E+02                                 F               0         Blade 1 Y force, node 11, N
         33   -2.075E+02                                 F               0         Blade 1 Z force, node 11, N
         34    9.411E+02                                 F               0         Blade 1 X force, node 12, N
         35   -1.375E+02                                 F               0         Blade 1 Y force, node 12, N
         36   -2.297E+02                                 F               0         Blade 1 Z force, node 12, N
         37    1.017E+03                                 F               0         Blade 1 X force, node 13, N
         38   -1.604E+02                                 F               0         Blade 1 Y force, node 13, N
         39   -2.518E+02                                 F               0         Blade 1 Z force, node 13, N
         40    1.093E+03                                 F               0         Blade 1 X force, node 14, N
         41   -1.833E+02                                 F               0         Blade 1 Y force, node 14, N
         42   -2.740E+02                                 F               0         Blade 1 Z force, node 14, N
         43    1.169E+03                                 F               0         Blade 1 X force, node 15, N
         44   -2.062E+02                                 F               0         Blade 1 Y force, node 15, N
         45   -2.962E+02                                 F               0         Blade 1 Z force, node 15, N
         46    1.245E+03                                 F               0         Blade 1 X force, node 16, N
         47   -2.292E+02                                 F               0         Blade 1 Y force, node 16, N
         48   -3.183E+02                                 F               0         Blade 1 Z force, node 16, N
         49    1.532E+03                                 F               0         Blade 1 X force, node 17, N
         50   -2.910E+02                                 F               0         Blade 1 Y force, node 17, N
         51   -3.947E+02                                 F               0         Blade 1 Z force, node 17, N
         52    1.178E+03                                 F               0         Blade 1 X force, node 18, N
         53   -2.155E+02                                 F               0         Blade 1 Y force, node 18, N
         54   -3.009E+02                                 F               0         Blade 1 Z force, node 18, N
         55    1.458E+03                                 F               0         Blade 1 X force, node 19, N
         56   -2.515E+02                                 F               0         Blade 1 Y force, node 19, N
         57   -3.677E+02                                 F               0         Blade 1 Z force, node 19, N
         58    1.253E+03                                 F               0         Blade 1 X force, node 20, N
         59   -2.042E+02                                 F               0         Blade 1 Y force, node 20, N
         60   -3.123E+02                                 F               0         Blade 1 Z force, node 20, N
         61    1.866E+03                                 F               0         Blade 1 X force, node 21, N
         62   -2.846E+02                                 F               0         Blade 1 Y force, node 21, N
         63   -4.591E+02                                 F               0         Blade 1 Z force, node 21, N
         64    1.661E+03                                 F               0         Blade 1 X force, node 22, N
         65   -2.365E+02                                 F               0         Blade 1 Y force, node 22, N
         66   -4.034E+02                                 F               0         Blade 1 Z force, node 22, N
         67    1.718E+03                                 F               0         Blade 1 X force, node 23, N
         68   -2.298E+02                                 F               0         Blade 1 Y force, node 23, N
         69   -4.127E+02                                 F               0         Blade 1 Z force, node 23, N
         70    1.806E+03                                 F               0         Blade 1 X force, node 24, N
         71   -2.269E+02                                 F               0         Blade 1 Y force, node 24, N
         72   -4.292E+02                                 F               0         Blade 1 Z force, node 24, N
         73    1.862E+03                                 F               0         Blade 1 X force, node 25, N
         74   -2.196E+02                                 F               0         Blade 1 Y force, node 25, N
         75   -4.382E+02                                 F               0         Blade 1 Z force, node 25, N
         76    1.928E+03                                 F               0         Blade 1 X force, node 26, N
         77   -2.136E+02                                 F               0         Blade 1 Y force, node 26, N
         78   -4.496E+02                                 F               0         Blade 1 Z force, node 26, N
         79    2.324E+03                                 F               0         Blade 1 X force, node 27, N
         80   -2.408E+02                                 F               0         Blade 1 Y force, node 27, N
         81   -5.368E+02                                 F               0         Blade 1 Z force, node 27, N
         82    1.732E+03                                 F               0         Blade 1 X force, node 28, N
         83   -1.680E+02                                 F               0         Blade 1 Y force, node 28, N
         84   -3.965E+02                                 F               0         Blade 1 Z force, node 28, N
         85    2.128E+03                                 F               0         Blade 1 X force, node 29, N
         86   -1.949E+02                                 F               0         Blade 1 Y force, node 29, N
         87   -4.836E+02                                 F               0         Blade 1 Z force, node 29, N
         88    1.818E+03                                 F               0         Blade 1 X force, node 30, N
         89   -1.573E+02                                 F               0         Blade 1 Y force, node 30, N
         90   -4.102E+02                                 F               0         Blade 1 Z force, node 30, N
         91    2.638E+03                                 F               0         Blade 1 X force, node 31, N
         92   -2.134E+02                                 F               0         Blade 1 Y force, node 31, N
         93   -5.907E+02                                 F               0         Blade 1 Z force, node 31, N
         94    2.327E+03                                 F               0         Blade 1 X force, node 32, N
         95   -1.755E+02                                 F               0         Blade 1 Y force, node 32, N
         96   -5.172E+02                                 F               0         Blade 1 Z force, node 32, N
         97    2.393E+03                                 F               0         Blade 1 X force, node 33, N
         98   -1.688E+02                                 F               0         Blade 1 Y force, node 33, N
         99   -5.282E+02                                 F               0         Blade 1 Z force, node 33, N
        100    2.459E+03                                 F               0         Blade 1 X force, node 34, N
        101   -1.621E+02                                 F               0         Blade 1 Y force, node 34, N
        102   -5.394E+02                                 F               0         Blade 1 Z force, node 34, N
        103    2.525E+03                                 F               0         Blade 1 X force, node 35, N
        104   -1.553E+02                                 F               0         Blade 1 Y force, node 35, N
        105   -5.504E+02                                 F               0         Blade 1 Z force, node 35, N
        106    2.591E+03                                 F               0         Blade 1 X force, node 36, N
        107   -1.485E+02                                 F               0         Blade 1 Y force, node 36, N
        108   -5.614E+02                                 F               0         Blade 1 Z force, node 36, N
        109    3.109E+03                                 F               0         Blade 1 X force, node 37, N
        110   -1.650E+02                                 F               0         Blade 1 Y force, node 37, N
        111   -6.696E+02                                 F               0         Blade 1 Z force, node 37, N
        112    2.271E+03                                 F               0         Blade 1 X force, node 38, N
        113   -1.114E+02                                 F               0         Blade 1 Y force, node 38, N
        114   -4.863E+02                                 F               0         Blade 1 Z force, node 38, N
        115    2.789E+03                                 F               0         Blade 1 X force, node 39, N
        116   -1.278E+02                                 F               0         Blade 1 Y force, node 39, N
        117   -5.945E+02                                 F               0         Blade 1 Z force, node 39, N
        118    2.384E+03                                 F               0         Blade 1 X force, node 40, N
        119   -1.018E+02                                 F               0         Blade 1 Y force, node 40, N
        120   -5.058E+02                                 F               0         Blade 1 Z force, node 40, N
        121    3.394E+03                                 F               0         Blade 1 X force, node 41, N
        122   -1.330E+02                                 F               0         Blade 1 Y force, node 41, N
        123   -7.164E+02                                 F               0         Blade 1 Z force, node 41, N
        124    2.987E+03                                 F               0         Blade 1 X force, node 42, N
        125   -1.068E+02                                 F               0         Blade 1 Y force, node 42, N
        126   -6.274E+02                                 F               0         Blade 1 Z force, node 42, N
        127    3.052E+03                                 F               0         Blade 1 X force, node 43, N
        128   -9.963E+01                                 F               0         Blade 1 Y force, node 43, N
        129   -6.382E+02                                 F               0         Blade 1 Z force, node 43, N
        130    3.134E+03                                 F               0         Blade 1 X force, node 44, N
        131   -9.296E+01                                 F               0         Blade 1 Y force, node 44, N
        132   -6.524E+02                                 F               0         Blade 1 Z force, node 44, N
        133    3.166E+03                                 F               0         Blade 1 X force, node 45, N
        134   -8.482E+01                                 F               0         Blade 1 Y force, node 45, N
        135   -6.563E+02                                 F               0         Blade 1 Z force, node 45, N
        136    3.248E+03                                 F               0         Blade 1 X force, node 46, N
        137   -7.811E+01                                 F               0         Blade 1 Y force, node 46, N
        138   -6.705E+02                                 F               0         Blade 1 Z force, node 46, N
        139    3.895E+03                                 F               0         Blade 1 X force, node 47, N
        140   -8.268E+01                                 F               0         Blade 1 Y force, node 47, N
        141   -8.007E+02                                 F               0         Blade 1 Z force, node 47, N
        142    2.797E+03                                 F               0         Blade 1 X force, node 48, N
        143   -5.188E+01                                 F               0         Blade 1 Y force, node 48, N
        144   -5.726E+02                                 F               0         Blade 1 Z force, node 48, N
        145    3.443E+03                                 F               0         Blade 1 X force, node 49, N
        146   -5.636E+01                                 F               0         Blade 1 Y force, node 49, N
        147   -7.027E+02                                 F               0         Blade 1 Z force, node 49, N
        148    2.950E+03                                 F               0         Blade 1 X force, node 50, N
        149   -4.199E+01                                 F               0         Blade 1 Y force, node 50, N
        150   -6.000E+02                                 F               0         Blade 1 Z force, node 50, N
        151    4.132E+03                                 F               0         Blade 1 X force, node 51, N
        152   -4.888E+01                                 F               0         Blade 1 Y force, node 51, N
        153   -8.374E+02                                 F               0         Blade 1 Z force, node 51, N
        154    3.639E+03                                 F               0         Blade 1 X force, node 52, N
        155   -3.453E+01                                 F               0         Blade 1 Y force, node 52, N
        156   -7.350E+02                                 F               0         Blade 1 Z force, node 52, N
        157    3.705E+03                                 F               0         Blade 1 X force, node 53, N
        158   -2.727E+01                                 F               0         Blade 1 Y force, node 53, N
        159   -7.458E+02                                 F               0         Blade 1 Z force, node 53, N
        160    3.813E+03                                 F               0         Blade 1 X force, node 54, N
        161   -2.019E+01                                 F               0         Blade 1 Y force, node 54, N
        162   -7.650E+02                                 F               0         Blade 1 Z force, node 54, N
        163    3.795E+03                                 F               0         Blade 1 X force, node 55, N
        164   -1.249E+01                                 F               0         Blade 1 Y force, node 55, N
        165   -7.591E+02                                 F               0         Blade 1 Z force, node 55, N
        166    3.902E+03                                 F               0         Blade 1 X force, node 56, N
        167   -5.344E+00                                 F               0         Blade 1 Y force, node 56, N
        168   -7.782E+02                                 F               0         Blade 1 Z force, node 56, N
        169    4.686E+03                                 F               0         Blade 1 X force, node 57, N
        170    2.949E+00                                 F               0         Blade 1 Y force, node 57, N
        171   -9.316E+02                                 F               0         Blade 1 Z force, node 57, N
        172    3.314E+03                                 F               0         Blade 1 X force, node 58, N
        173    8.399E+00                                 F               0         Blade 1 Y force, node 58, N
        174   -6.570E+02                                 F               0         Blade 1 Z force, node 58, N
        175    4.098E+03                                 F               0         Blade 1 X force, node 59, N
        176    1.673E+01                                 F               0         Blade 1 Y force, node 59, N
        177   -8.104E+02                                 F               0         Blade 1 Z force, node 59, N
        178    3.526E+03                                 F               0         Blade 1 X force, node 60, N
        179    1.982E+01                                 F               0         Blade 1 Y force, node 60, N
        180   -6.956E+02                                 F               0         Blade 1 Z force, node 60, N
        181    4.866E+03                                 F               0         Blade 1 X force, node 61, N
        182    3.582E+01                                 F               0         Blade 1 Y force, node 61, N
        183   -9.574E+02                                 F               0         Blade 1 Z force, node 61, N
        184    4.293E+03                                 F               0         Blade 1 X force, node 62, N