
Linearized model: Predictions were generated on 08-Jan-2024 at 09:43:14 using OpenFAST, compiled as a 64-bit application using single precision at commit v3.5.1
 linked with  NWTC Subroutine Library; ElastoDyn; InflowWind; AeroDyn; ServoDyn; HydroDyn; MoorDyn (v2.0.0, 2023-09-18)

Description from the FAST input file: CCT-9 Campign 4 model. Input files to be run with OpenFAST 3.5.0. GitHub branch from Lu Wang (https://github.com/luwang00/openfast/tree/dev) compiled on March 7, 2023.

Simulation information:
   Simulation time:                  1003.2500 s
   Rotor Speed:                         0.7074 rad/s
   Azimuth:                             1.4863 rad
   Wind Speed:                          8.0000 m/s
   Number of continuous states:         0
   Number of discrete states:           0
   Number of constraint states:         0
   Number of inputs:                  303
   Number of outputs:                   1
   Jacobians included in this file?    No

Order of inputs:
     Column   Operating Point                     Rotating Frame? Derivative Order Description
   ---------- ---------------                     --------------- ---------------- -----------
          1   -1.080E+01                                 F               0         X-component position of node 1 (hub), m
          2    0.000E+00                                 F               0         Y-component position of node 1 (hub), m
          3    1.497E+02                                 F               0         Z-component position of node 1 (hub), m
          4    8.103E+00                                 F               0         X-component position of node 2 (blade 1, node 1), m
          5   -1.279E+01                                 F               0         Y-component position of node 2 (blade 1, node 1), m
          6    1.501E+02                                 F               0         Z-component position of node 2 (blade 1, node 1), m
          7    8.125E+00                                 F               0         X-component position of node 3 (blade 1, node 2), m
          8   -1.412E+01                                 F               0         Y-component position of node 3 (blade 1, node 2), m
          9    1.502E+02                                 F               0         Z-component position of node 3 (blade 1, node 2), m
         10    8.425E+00                                 F               0         X-component position of node 4 (blade 1, node 3), m
         11   -3.226E+01                                 F               0         Y-component position of node 4 (blade 1, node 3), m
         12    1.508E+02                                 F               0         Z-component position of node 4 (blade 1, node 3), m
         13    8.489E+00                                 F               0         X-component position of node 5 (blade 1, node 4), m
         14   -3.612E+01                                 F               0         Y-component position of node 5 (blade 1, node 4), m
         15    1.510E+02                                 F               0         Z-component position of node 5 (blade 1, node 4), m
         16    8.553E+00                                 F               0         X-component position of node 6 (blade 1, node 5), m
         17   -3.999E+01                                 F               0         Y-component position of node 6 (blade 1, node 5), m
         18    1.511E+02                                 F               0         Z-component position of node 6 (blade 1, node 5), m
         19    8.617E+00                                 F               0         X-component position of node 7 (blade 1, node 6), m
         20   -4.385E+01                                 F               0         Y-component position of node 7 (blade 1, node 6), m
         21    1.513E+02                                 F               0         Z-component position of node 7 (blade 1, node 6), m
         22    8.681E+00                                 F               0         X-component position of node 8 (blade 1, node 7), m
         23   -4.772E+01                                 F               0         Y-component position of node 8 (blade 1, node 7), m
         24    1.514E+02                                 F               0         Z-component position of node 8 (blade 1, node 7), m
         25    8.745E+00                                 F               0         X-component position of node 9 (blade 1, node 8), m
         26   -5.158E+01                                 F               0         Y-component position of node 9 (blade 1, node 8), m
         27    1.515E+02                                 F               0         Z-component position of node 9 (blade 1, node 8), m
         28    8.808E+00                                 F               0         X-component position of node 10 (blade 1, node 9), m
         29   -5.544E+01                                 F               0         Y-component position of node 10 (blade 1, node 9), m
         30    1.517E+02                                 F               0         Z-component position of node 10 (blade 1, node 9), m
         31    8.872E+00                                 F               0         X-component position of node 11 (blade 1, node 10), m
         32   -5.931E+01                                 F               0         Y-component position of node 11 (blade 1, node 10), m
         33    1.518E+02                                 F               0         Z-component position of node 11 (blade 1, node 10), m
         34    8.936E+00                                 F               0         X-component position of node 12 (blade 1, node 11), m
         35   -6.317E+01                                 F               0         Y-component position of node 12 (blade 1, node 11), m
         36    1.520E+02                                 F               0         Z-component position of node 12 (blade 1, node 11), m
         37    9.000E+00                                 F               0         X-component position of node 13 (blade 1, node 12), m
         38   -6.704E+01                                 F               0         Y-component position of node 13 (blade 1, node 12), m
         39    1.521E+02                                 F               0         Z-component position of node 13 (blade 1, node 12), m
         40    9.064E+00                                 F               0         X-component position of node 14 (blade 1, node 13), m
         41   -7.090E+01                                 F               0         Y-component position of node 14 (blade 1, node 13), m
         42    1.523E+02                                 F               0         Z-component position of node 14 (blade 1, node 13), m
         43    9.128E+00                                 F               0         X-component position of node 15 (blade 1, node 14), m
         44   -7.477E+01                                 F               0         Y-component position of node 15 (blade 1, node 14), m
         45    1.524E+02                                 F               0         Z-component position of node 15 (blade 1, node 14), m
         46    9.192E+00                                 F               0         X-component position of node 16 (blade 1, node 15), m
         47   -7.863E+01                                 F               0         Y-component position of node 16 (blade 1, node 15), m
         48    1.525E+02                                 F               0         Z-component position of node 16 (blade 1, node 15), m
         49    9.256E+00                                 F               0         X-component position of node 17 (blade 1, node 16), m
         50   -8.250E+01                                 F               0         Y-component position of node 17 (blade 1, node 16), m
         51    1.527E+02                                 F               0         Z-component position of node 17 (blade 1, node 16), m
         52    9.320E+00                                 F               0         X-component position of node 18 (blade 1, node 17), m
         53   -8.636E+01                                 F               0         Y-component position of node 18 (blade 1, node 17), m
         54    1.528E+02                                 F               0         Z-component position of node 18 (blade 1, node 17), m
         55    9.384E+00                                 F               0         X-component position of node 19 (blade 1, node 18), m
         56   -9.022E+01                                 F               0         Y-component position of node 19 (blade 1, node 18), m
         57    1.530E+02                                 F               0         Z-component position of node 19 (blade 1, node 18), m
         58    9.448E+00                                 F               0         X-component position of node 20 (blade 1, node 19), m
         59   -9.409E+01                                 F               0         Y-component position of node 20 (blade 1, node 19), m
         60    1.531E+02                                 F               0         Z-component position of node 20 (blade 1, node 19), m
         61    9.511E+00                                 F               0         X-component position of node 21 (blade 1, node 20), m
         62   -9.795E+01                                 F               0         Y-component position of node 21 (blade 1, node 20), m
         63    1.533E+02                                 F               0         Z-component position of node 21 (blade 1, node 20), m
         64    9.575E+00                                 F               0         X-component position of node 22 (blade 1, node 21), m
         65   -1.018E+02                                 F               0         Y-component position of node 22 (blade 1, node 21), m
         66    1.534E+02                                 F               0         Z-component position of node 22 (blade 1, node 21), m
         67    9.639E+00                                 F               0         X-component position of node 23 (blade 1, node 22), m
         68   -1.057E+02                                 F               0         Y-component position of node 23 (blade 1, node 22), m
         69    1.535E+02                                 F               0         Z-component position of node 23 (blade 1, node 22), m
         70    9.703E+00                                 F               0         X-component position of node 24 (blade 1, node 23), m
         71   -1.095E+02                                 F               0         Y-component position of node 24 (blade 1, node 23), m
         72    1.537E+02                                 F               0         Z-component position of node 24 (blade 1, node 23), m
         73    9.767E+00                                 F               0         X-component position of node 25 (blade 1, node 24), m
         74   -1.134E+02                                 F               0         Y-component position of node 25 (blade 1, node 24), m
         75    1.538E+02                                 F               0         Z-component position of node 25 (blade 1, node 24), m
         76    9.831E+00                                 F               0         X-component position of node 26 (blade 1, node 25), m
         77   -1.173E+02                                 F               0         Y-component position of node 26 (blade 1, node 25), m
         78    1.540E+02                                 F               0         Z-component position of node 26 (blade 1, node 25), m
         79    9.895E+00                                 F               0         X-component position of node 27 (blade 1, node 26), m
         80   -1.211E+02                                 F               0         Y-component position of node 27 (blade 1, node 26), m
         81    1.541E+02                                 F               0         Z-component position of node 27 (blade 1, node 26), m
         82    9.959E+00                                 F               0         X-component position of node 28 (blade 1, node 27), m
         83   -1.250E+02                                 F               0         Y-component position of node 28 (blade 1, node 27), m
         84    1.543E+02                                 F               0         Z-component position of node 28 (blade 1, node 27), m
         85    1.001E+01                                 F               0         X-component position of node 29 (blade 1, node 28), m
         86   -1.283E+02                                 F               0         Y-component position of node 29 (blade 1, node 28), m
         87    1.544E+02                                 F               0         Z-component position of node 29 (blade 1, node 28), m
         88    7.045E+00                                 F               0         X-component position of node 30 (blade 2, node 1), m
         89   -4.672E+00                                 F               0         Y-component position of node 30 (blade 2, node 1), m
         90    1.451E+02                                 F               0         Z-component position of node 30 (blade 2, node 1), m
         91    6.812E+00                                 F               0         X-component position of node 31 (blade 2, node 2), m
         92   -4.051E+00                                 F               0         Y-component position of node 31 (blade 2, node 2), m
         93    1.439E+02                                 F               0         Z-component position of node 31 (blade 2, node 2), m
         94    3.644E+00                                 F               0         X-component position of node 32 (blade 2, node 3), m
         95    4.398E+00                                 F               0         Y-component position of node 32 (blade 2, node 3), m
         96    1.282E+02                                 F               0         Z-component position of node 32 (blade 2, node 3), m
         97    2.969E+00                                 F               0         X-component position of node 33 (blade 2, node 4), m
         98    6.198E+00                                 F               0         Y-component position of node 33 (blade 2, node 4), m
         99    1.248E+02                                 F               0         Z-component position of node 33 (blade 2, node 4), m
        100    2.294E+00                                 F               0         X-component position of node 34 (blade 2, node 5), m
        101    7.999E+00                                 F               0         Y-component position of node 34 (blade 2, node 5), m
        102    1.215E+02                                 F               0         Z-component position of node 34 (blade 2, node 5), m
        103    1.619E+00                                 F               0         X-component position of node 35 (blade 2, node 6), m
        104    9.799E+00                                 F               0         Y-component position of node 35 (blade 2, node 6), m
        105    1.181E+02                                 F               0         Z-component position of node 35 (blade 2, node 6), m
        106    9.436E-01                                 F               0         X-component position of node 36 (blade 2, node 7), m
        107    1.160E+01                                 F               0         Y-component position of node 36 (blade 2, node 7), m
        108    1.148E+02                                 F               0         Z-component position of node 36 (blade 2, node 7), m
        109    2.685E-01                                 F               0         X-component position of node 37 (blade 2, node 8), m
        110    1.340E+01                                 F               0         Y-component position of node 37 (blade 2, node 8), m
        111    1.114E+02                                 F               0         Z-component position of node 37 (blade 2, node 8), m
        112   -4.065E-01                                 F               0         X-component position of node 38 (blade 2, node 9), m
        113    1.520E+01                                 F               0         Y-component position of node 38 (blade 2, node 9), m
        114    1.081E+02                                 F               0         Z-component position of node 38 (blade 2, node 9), m
        115   -1.081E+00                                 F               0         X-component position of node 39 (blade 2, node 10), m
        116    1.700E+01                                 F               0         Y-component position of node 39 (blade 2, node 10), m
        117    1.047E+02                                 F               0         Z-component position of node 39 (blade 2, node 10), m
        118   -1.756E+00                                 F               0         X-component position of node 40 (blade 2, node 11), m
        119    1.880E+01                                 F               0         Y-component position of node 40 (blade 2, node 11), m
        120    1.013E+02                                 F               0         Z-component position of node 40 (blade 2, node 11), m
        121   -2.431E+00                                 F               0         X-component position of node 41 (blade 2, node 12), m
        122    2.060E+01                                 F               0         Y-component position of node 41 (blade 2, node 12), m
        123    9.799E+01                                 F               0         Z-component position of node 41 (blade 2, node 12), m
        124   -3.106E+00                                 F               0         X-component position of node 42 (blade 2, node 13), m
        125    2.240E+01                                 F               0         Y-component position of node 42 (blade 2, node 13), m
        126    9.463E+01                                 F               0         Z-component position of node 42 (blade 2, node 13), m
        127   -3.781E+00                                 F               0         X-component position of node 43 (blade 2, node 14), m
        128    2.420E+01                                 F               0         Y-component position of node 43 (blade 2, node 14), m
        129    9.127E+01                                 F               0         Z-component position of node 43 (blade 2, node 14), m
        130   -4.456E+00                                 F               0         X-component position of node 44 (blade 2, node 15), m
        131    2.600E+01                                 F               0         Y-component position of node 44 (blade 2, node 15), m
        132    8.792E+01                                 F               0         Z-component position of node 44 (blade 2, node 15), m
        133   -5.131E+00                                 F               0         X-component position of node 45 (blade 2, node 16), m
        134    2.780E+01                                 F               0         Y-component position of node 45 (blade 2, node 16), m
        135    8.456E+01                                 F               0         Z-component position of node 45 (blade 2, node 16), m
        136   -5.806E+00                                 F               0         X-component position of node 46 (blade 2, node 17), m
        137    2.960E+01                                 F               0         Y-component position of node 46 (blade 2, node 17), m
        138    8.121E+01                                 F               0         Z-component position of node 46 (blade 2, node 17), m
        139   -6.481E+00                                 F               0         X-component position of node 47 (blade 2, node 18), m
        140    3.140E+01                                 F               0         Y-component position of node 47 (blade 2, node 18), m
        141    7.785E+01                                 F               0         Z-component position of node 47 (blade 2, node 18), m
        142   -7.156E+00                                 F               0         X-component position of node 48 (blade 2, node 19), m
        143    3.320E+01                                 F               0         Y-component position of node 48 (blade 2, node 19), m
        144    7.449E+01                                 F               0         Z-component position of node 48 (blade 2, node 19), m
        145   -7.831E+00                                 F               0         X-component position of node 49 (blade 2, node 20), m
        146    3.500E+01                                 F               0         Y-component position of node 49 (blade 2, node 20), m
        147    7.114E+01                                 F               0         Z-component position of node 49 (blade 2, node 20), m
        148   -8.506E+00                                 F               0         X-component position of node 50 (blade 2, node 21), m
        149    3.680E+01                                 F               0         Y-component position of node 50 (blade 2, node 21), m
        150    6.778E+01                                 F               0         Z-component position of node 50 (blade 2, node 21), m
        151   -9.182E+00                                 F               0         X-component position of node 51 (blade 2, node 22), m
        152    3.860E+01                                 F               0         Y-component position of node 51 (blade 2, node 22), m
        153    6.442E+01                                 F               0         Z-component position of node 51 (blade 2, node 22), m
        154   -9.856E+00                                 F               0         X-component position of node 52 (blade 2, node 23), m
        155    4.040E+01                                 F               0         Y-component position of node 52 (blade 2, node 23), m
        156    6.107E+01                                 F               0         Z-component position of node 52 (blade 2, node 23), m
        157   -1.053E+01                                 F               0         X-component position of node 53 (blade 2, node 24), m
        158    4.220E+01                                 F               0         Y-component position of node 53 (blade 2, node 24), m
        159    5.771E+01                                 F               0         Z-component position of node 53 (blade 2, node 24), m
        160   -1.121E+01                                 F               0         X-component position of node 54 (blade 2, node 25), m
        161    4.400E+01                                 F               0         Y-component position of node 54 (blade 2, node 25), m
        162    5.436E+01                                 F               0         Z-component position of node 54 (blade 2, node 25), m
        163   -1.188E+01                                 F               0         X-component position of node 55 (blade 2, node 26), m
        164    4.580E+01                                 F               0         Y-component position of node 55 (blade 2, node 26), m
        165    5.100E+01                                 F               0         Z-component position of node 55 (blade 2, node 26), m
        166   -1.256E+01                                 F               0         X-component position of node 56 (blade 2, node 27), m
        167    4.760E+01                                 F               0         Y-component position of node 56 (blade 2, node 27), m
        168    4.765E+01                                 F               0         Z-component position of node 56 (blade 2, node 27), m
        169   -1.313E+01                                 F               0         X-component position of node 57 (blade 2, node 28), m
        170    4.913E+01                                 F               0         Y-component position of node 57 (blade 2, node 28), m
        171    4.480E+01                                 F               0         Z-component position of node 57 (blade 2, node 28), m
        172    8.887E+00                                 F               0         X-component position of node 58 (blade 3, node 1), m
        173   -4.293E+00                                 F               0         Y-component position of node 58 (blade 3, node 1), m
        174    1.545E+02                                 F               0         Z-component position of node 58 (blade 3, node 1), m
        175    9.098E+00                                 F               0         X-component position of node 59 (blade 3, node 2), m
        176   -3.581E+00                                 F               0         Y-component position of node 59 (blade 3, node 2), m
        177    1.556E+02                                 F               0         Z-component position of node 59 (blade 3, node 2), m
        178    1.197E+01                                 F               0         X-component position of node 60 (blade 3, node 3), m
        179    6.108E+00                                 F               0         Y-component position of node 60 (blade 3, node 3), m
        180    1.707E+02                                 F               0         Z-component position of node 60 (blade 3, node 3), m
        181    1.258E+01                                 F               0         X-component position of node 61 (blade 3, node 4), m
        182    8.172E+00                                 F               0         Y-component position of node 61 (blade 3, node 4), m
        183    1.739E+02                                 F               0         Z-component position of node 61 (blade 3, node 4), m
        184    1.319E+01                                 F               0         X-component position of node 62 (blade 3, node 5), m
        185    1.024E+01                                 F               0         Y-component position of node 62 (blade 3, node 5), m
        186    1.771E+02                                 F               0         Z-component position of node 62 (blade 3, node 5), m
        187    1.380E+01                                 F               0         X-component position of node 63 (blade 3, node 6), m
        188    1.230E+01                                 F               0         Y-component position of node 63 (blade 3, node 6), m
        189    1.803E+02                                 F               0         Z-component position of node 63 (blade 3, node 6), m
        190    1.441E+01                                 F               0         X-component position of node 64 (blade 3, node 7), m
        191    1.437E+01                                 F               0         Y-component position of node 64 (blade 3, node 7), m
        192    1.835E+02                                 F               0         Z-component position of node 64 (blade 3, node 7), m
        193    1.502E+01                                 F               0         X-component position of node 65 (blade 3, node 8), m
        194    1.643E+01                                 F               0         Y-component position of node 65 (blade 3, node 8), m
        195    1.868E+02                                 F               0         Z-component position of node 65 (blade 3, node 8), m
        196    1.563E+01                                 F               0         X-component position of node 66 (blade 3, node 9), m
        197    1.849E+01                                 F               0         Y-component position of node 66 (blade 3, node 9), m
        198    1.900E+02                                 F               0         Z-component position of node 66 (blade 3, node 9), m
        199    1.624E+01                                 F               0         X-component position of node 67 (blade 3, node 10), m
        200    2.056E+01                                 F               0         Y-component position of node 67 (blade 3, node 10), m
        201    1.932E+02                                 F               0         Z-component position of node 67 (blade 3, node 10), m
        202    1.685E+01                                 F               0         X-component position of node 68 (blade 3, node 11), m
        203    2.262E+01                                 F               0         Y-component position of node 68 (blade 3, node 11), m
        204    1.964E+02                                 F               0         Z-component position of node 68 (blade 3, node 11), m
        205    1.747E+01                                 F               0         X-component position of node 69 (blade 3, node 12), m
        206    2.469E+01                                 F               0         Y-component position of node 69 (blade 3, node 12), m
        207    1.996E+02                                 F               0         Z-component position of node 69 (blade 3, node 12), m
        208    1.808E+01                                 F               0         X-component position of node 70 (blade 3, node 13), m
        209    2.675E+01                                 F               0         Y-component position of node 70 (blade 3, node 13), m
        210    2.028E+02                                 F               0         Z-component position of node 70 (blade 3, node 13), m
        211    1.869E+01                                 F               0         X-component position of node 71 (blade 3, node 14), m