
Linearized model: Predictions were generated on 08-Jan-2024 at 09:43:14 using OpenFAST, compiled as a 64-bit application using single precision at commit v3.5.1
 linked with  NWTC Subroutine Library; ElastoDyn; InflowWind; AeroDyn; ServoDyn; HydroDyn; MoorDyn (v2.0.0, 2023-09-18)

Description from the FAST input file: CCT-9 Campign 4 model. Input files to be run with OpenFAST 3.5.0. GitHub branch from Lu Wang (https://github.com/luwang00/openfast/tree/dev) compiled on March 7, 2023.

Simulation information:
   Simulation time:                  1001.5000 s
   Rotor Speed:                         0.7074 rad/s
   Azimuth:                             0.2484 rad
   Wind Speed:                          8.0000 m/s
   Number of continuous states:         0
   Number of discrete states:           0
   Number of constraint states:         0
   Number of inputs:                   54
   Number of outputs:                   0
   Jacobians included in this file?    No

Order of inputs:
     Column   Operating Point                     Rotating Frame? Derivative Order Description
   ---------- ---------------                     --------------- ---------------- -----------
          1    4.427E+00                                 F               0         CoupledKinematics X translation displacement, node 1, m
          2    3.240E-01                                 F               0         CoupledKinematics Y translation displacement, node 1, m
          3   -4.762E+00                                 F               0         CoupledKinematics Z translation displacement, node 1, m
          4    4.385E+00                                 F               0         CoupledKinematics X translation displacement, node 2, m
          5    2.216E-01                                 F               0         CoupledKinematics Y translation displacement, node 2, m
          6   -1.762E-01                                 F               0         CoupledKinematics Z translation displacement, node 2, m
          7    4.719E+00                                 F               0         CoupledKinematics X translation displacement, node 3, m
          8   -9.299E-02                                 F               0         CoupledKinematics Y translation displacement, node 3, m
          9    4.971E+00                                 F               0         CoupledKinematics Z translation displacement, node 3, m
         10    9.965E-01,  4.117E-03, -8.374E-02         F               0         CoupledKinematics X orientation angle, node 1, rad
         11   -4.348E-04,  9.990E-01,  4.395E-02         F               0         CoupledKinematics Y orientation angle, node 1, rad
         12    8.384E-02, -4.376E-02,  9.955E-01         F               0         CoupledKinematics Z orientation angle, node 1, rad
         13    9.965E-01,  4.117E-03, -8.374E-02         F               0         CoupledKinematics X orientation angle, node 2, rad
         14   -4.348E-04,  9.990E-01,  4.395E-02         F               0         CoupledKinematics Y orientation angle, node 2, rad
         15    8.384E-02, -4.376E-02,  9.955E-01         F               0         CoupledKinematics Z orientation angle, node 2, rad
         16    9.965E-01,  4.117E-03, -8.374E-02         F               0         CoupledKinematics X orientation angle, node 3, rad
         17   -4.348E-04,  9.990E-01,  4.395E-02         F               0         CoupledKinematics Y orientation angle, node 3, rad
         18    8.384E-02, -4.376E-02,  9.955E-01         F               0         CoupledKinematics Z orientation angle, node 3, rad
         19   -3.024E-05                                 F               0         CoupledKinematics X translation velocity, node 1, m/s
         20   -4.399E-04                                 F               0         CoupledKinematics Y translation velocity, node 1, m/s
         21   -9.712E-04                                 F               0         CoupledKinematics Z translation velocity, node 1, m/s
         22   -1.985E-04                                 F               0         CoupledKinematics X translation velocity, node 2, m/s
         23   -2.844E-04                                 F               0         CoupledKinematics Y translation velocity, node 2, m/s
         24   -4.488E-03                                 F               0         CoupledKinematics Z translation velocity, node 2, m/s
         25   -1.341E-04                                 F               0         CoupledKinematics X translation velocity, node 3, m/s
         26   -2.420E-04                                 F               0         CoupledKinematics Y translation velocity, node 3, m/s
         27   -2.959E-03                                 F               0         CoupledKinematics Z translation velocity, node 3, m/s
         28   -3.416E-05                                 F               0         CoupledKinematics X rotation velocity, node 1, rad/s
         29   -2.729E-06                                 F               0         CoupledKinematics Y rotation velocity, node 1, rad/s
         30    1.513E-06                                 F               0         CoupledKinematics Z rotation velocity, node 1, rad/s
         31   -3.416E-05                                 F               0         CoupledKinematics X rotation velocity, node 2, rad/s
         32   -2.729E-06                                 F               0         CoupledKinematics Y rotation velocity, node 2, rad/s
         33    1.513E-06                                 F               0         CoupledKinematics Z rotation velocity, node 2, rad/s
         34   -3.416E-05                                 F               0         CoupledKinematics X rotation velocity, node 3, rad/s
         35   -2.729E-06                                 F               0         CoupledKinematics Y rotation velocity, node 3, rad/s
         36    1.513E-06                                 F               0         CoupledKinematics Z rotation velocity, node 3, rad/s
         37   -5.610E-07                                 F               0         CoupledKinematics X translation acceleration, node 1, m/s^2
         38   -1.955E-04                                 F               0         CoupledKinematics Y translation acceleration, node 1, m/s^2
         39    2.823E-04                                 F               0         CoupledKinematics Z translation acceleration, node 1, m/s^2
         40   -3.592E-05                                 F               0         CoupledKinematics X translation acceleration, node 2, m/s^2
         41   -1.217E-04                                 F               0         CoupledKinematics Y translation acceleration, node 2, m/s^2
         42   -1.382E-03                                 F               0         CoupledKinematics Z translation acceleration, node 2, m/s^2
         43   -8.775E-06                                 F               0         CoupledKinematics X translation acceleration, node 3, m/s^2
         44   -7.354E-05                                 F               0         CoupledKinematics Y translation acceleration, node 3, m/s^2
         45   -4.331E-04                                 F               0         CoupledKinematics Z translation acceleration, node 3, m/s^2
         46   -1.618E-05                                 F               0         CoupledKinematics X rotation acceleration, node 1, rad/s^2
         47    1.253E-06                                 F               0         CoupledKinematics Y rotation acceleration, node 1, rad/s^2
         48    3.995E-07                                 F               0         CoupledKinematics Z rotation acceleration, node 1, rad/s^2
         49   -1.618E-05                                 F               0         CoupledKinematics X rotation acceleration, node 2, rad/s^2
         50    1.253E-06                                 F               0         CoupledKinematics Y rotation acceleration, node 2, rad/s^2
         51    3.995E-07                                 F               0         CoupledKinematics Z rotation acceleration, node 2, rad/s^2
         52   -1.618E-05                                 F               0         CoupledKinematics X rotation acceleration, node 3, rad/s^2
         53    1.253E-06                                 F               0         CoupledKinematics Y rotation acceleration, node 3, rad/s^2
         54    3.995E-07                                 F               0         CoupledKinematics Z rotation acceleration, node 3, rad/s^2


Linearized state matrices:

