
Linearized model: Predictions were generated on 08-Jan-2024 at 09:43:14 using OpenFAST, compiled as a 64-bit application using single precision at commit v3.5.1
 linked with  NWTC Subroutine Library; ElastoDyn; InflowWind; AeroDyn; ServoDyn; HydroDyn; MoorDyn (v2.0.0, 2023-09-18)

Description from the FAST input file: CCT-9 Campign 4 model. Input files to be run with OpenFAST 3.5.0. GitHub branch from Lu Wang (https://github.com/luwang00/openfast/tree/dev) compiled on March 7, 2023.

Simulation information:
   Simulation time:                  1004.2250 s
   Rotor Speed:                         0.7075 rad/s
   Azimuth:                             2.1760 rad
   Wind Speed:                          8.0000 m/s
   Number of continuous states:         0
   Number of discrete states:           0
   Number of constraint states:         0
   Number of inputs:                 1746
   Number of outputs:                   4
   Jacobians included in this file?    No

Order of inputs:
     Column   Operating Point                     Rotating Frame? Derivative Order Description
   ---------- ---------------                     --------------- ---------------- -----------
          1    7.250E+00                                 F               0         Tower X translation displacement, node 1, m
          2   -1.277E+00                                 F               0         Tower Y translation displacement, node 1, m
          3   -1.578E-01                                 F               0         Tower Z translation displacement, node 1, m
          4    8.293E+00                                 F               0         Tower X translation displacement, node 2, m
          5   -1.818E+00                                 F               0         Tower Y translation displacement, node 2, m
          6   -2.137E-01                                 F               0         Tower Z translation displacement, node 2, m
          7    9.350E+00                                 F               0         Tower X translation displacement, node 3, m
          8   -2.365E+00                                 F               0         Tower Y translation displacement, node 3, m
          9   -2.712E-01                                 F               0         Tower Z translation displacement, node 3, m
         10    1.042E+01                                 F               0         Tower X translation displacement, node 4, m
         11   -2.915E+00                                 F               0         Tower Y translation displacement, node 4, m
         12   -3.299E-01                                 F               0         Tower Z translation displacement, node 4, m
         13    1.150E+01                                 F               0         Tower X translation displacement, node 5, m
         14   -3.469E+00                                 F               0         Tower Y translation displacement, node 5, m
         15   -3.896E-01                                 F               0         Tower Z translation displacement, node 5, m
         16    1.259E+01                                 F               0         Tower X translation displacement, node 6, m
         17   -4.026E+00                                 F               0         Tower Y translation displacement, node 6, m
         18   -4.501E-01                                 F               0         Tower Z translation displacement, node 6, m
         19    1.368E+01                                 F               0         Tower X translation displacement, node 7, m
         20   -4.586E+00                                 F               0         Tower Y translation displacement, node 7, m
         21   -5.111E-01                                 F               0         Tower Z translation displacement, node 7, m
         22    1.477E+01                                 F               0         Tower X translation displacement, node 8, m
         23   -5.147E+00                                 F               0         Tower Y translation displacement, node 8, m
         24   -5.725E-01                                 F               0         Tower Z translation displacement, node 8, m
         25    1.587E+01                                 F               0         Tower X translation displacement, node 9, m
         26   -5.710E+00                                 F               0         Tower Y translation displacement, node 9, m
         27   -6.343E-01                                 F               0         Tower Z translation displacement, node 9, m
         28    1.697E+01                                 F               0         Tower X translation displacement, node 10, m
         29   -6.274E+00                                 F               0         Tower Y translation displacement, node 10, m
         30   -6.963E-01                                 F               0         Tower Z translation displacement, node 10, m
         31    1.807E+01                                 F               0         Tower X translation displacement, node 11, m
         32   -6.839E+00                                 F               0         Tower Y translation displacement, node 11, m
         33   -7.583E-01                                 F               0         Tower Z translation displacement, node 11, m
         34    9.965E-01,  4.115E-03, -8.373E-02         F               0         Tower X orientation angle, node 1, rad
         35   -4.425E-04,  9.990E-01,  4.384E-02         F               0         Tower Y orientation angle, node 1, rad
         36    8.383E-02, -4.364E-02,  9.955E-01         F               0         Tower Z orientation angle, node 1, rad
         37    9.964E-01,  4.168E-03, -8.494E-02         F               0         Tower X orientation angle, node 2, rad
         38   -4.088E-04,  9.990E-01,  4.423E-02         F               0         Tower Y orientation angle, node 2, rad
         39    8.504E-02, -4.404E-02,  9.954E-01         F               0         Tower Z orientation angle, node 2, rad
         40    9.963E-01,  4.215E-03, -8.598E-02         F               0         Tower X orientation angle, node 3, rad
         41   -3.781E-04,  9.990E-01,  4.459E-02         F               0         Tower Y orientation angle, node 3, rad
         42    8.608E-02, -4.439E-02,  9.953E-01         F               0         Tower Z orientation angle, node 3, rad
         43    9.962E-01,  4.253E-03, -8.683E-02         F               0         Tower X orientation angle, node 4, rad
         44   -3.510E-04,  9.990E-01,  4.490E-02         F               0         Tower Y orientation angle, node 4, rad
         45    8.694E-02, -4.470E-02,  9.952E-01         F               0         Tower Z orientation angle, node 4, rad
         46    9.962E-01,  4.284E-03, -8.752E-02         F               0         Tower X orientation angle, node 5, rad
         47   -3.276E-04,  9.990E-01,  4.517E-02         F               0         Tower Y orientation angle, node 5, rad
         48    8.762E-02, -4.497E-02,  9.951E-01         F               0         Tower Z orientation angle, node 5, rad
         49    9.961E-01,  4.308E-03, -8.804E-02         F               0         Tower X orientation angle, node 6, rad
         50   -3.079E-04,  9.990E-01,  4.539E-02         F               0         Tower Y orientation angle, node 6, rad
         51    8.814E-02, -4.519E-02,  9.951E-01         F               0         Tower Z orientation angle, node 6, rad
         52    9.961E-01,  4.325E-03, -8.841E-02         F               0         Tower X orientation angle, node 7, rad
         53   -2.921E-04,  9.990E-01,  4.557E-02         F               0         Tower Y orientation angle, node 7, rad
         54    8.852E-02, -4.537E-02,  9.950E-01         F               0         Tower Z orientation angle, node 7, rad
         55    9.961E-01,  4.336E-03, -8.867E-02         F               0         Tower X orientation angle, node 8, rad
         56   -2.797E-04,  9.990E-01,  4.571E-02         F               0         Tower Y orientation angle, node 8, rad
         57    8.877E-02, -4.551E-02,  9.950E-01         F               0         Tower Z orientation angle, node 8, rad
         58    9.960E-01,  4.344E-03, -8.883E-02         F               0         Tower X orientation angle, node 9, rad
         59   -2.707E-04,  9.989E-01,  4.582E-02         F               0         Tower Y orientation angle, node 9, rad
         60    8.894E-02, -4.561E-02,  9.950E-01         F               0         Tower Z orientation angle, node 9, rad
         61    9.960E-01,  4.348E-03, -8.892E-02         F               0         Tower X orientation angle, node 10, rad
         62   -2.648E-04,  9.989E-01,  4.588E-02         F               0         Tower Y orientation angle, node 10, rad
         63    8.902E-02, -4.568E-02,  9.950E-01         F               0         Tower Z orientation angle, node 10, rad
         64    9.960E-01,  4.350E-03, -8.896E-02         F               0         Tower X orientation angle, node 11, rad
         65   -2.616E-04,  9.989E-01,  4.592E-02         F               0         Tower Y orientation angle, node 11, rad
         66    8.906E-02, -4.571E-02,  9.950E-01         F               0         Tower Z orientation angle, node 11, rad
         67    1.619E-05                                 F               0         Tower X translation velocity, node 1, m/s
         68    5.232E-04                                 F               0         Tower Y translation velocity, node 1, m/s
         69   -3.040E-03                                 F               0         Tower Z translation velocity, node 1, m/s
         70    7.366E-05                                 F               0         Tower X translation velocity, node 2, m/s
         71    9.374E-04                                 F               0         Tower Y translation velocity, node 2, m/s
         72   -3.027E-03                                 F               0         Tower Z translation velocity, node 2, m/s
         73    1.152E-04                                 F               0         Tower X translation velocity, node 3, m/s
         74    1.349E-03                                 F               0         Tower Y translation velocity, node 3, m/s
         75   -3.012E-03                                 F               0         Tower Z translation velocity, node 3, m/s
         76    1.419E-04                                 F               0         Tower X translation velocity, node 4, m/s
         77    1.758E-03                                 F               0         Tower Y translation velocity, node 4, m/s
         78   -2.996E-03                                 F               0         Tower Z translation velocity, node 4, m/s
         79    1.534E-04                                 F               0         Tower X translation velocity, node 5, m/s
         80    2.165E-03                                 F               0         Tower Y translation velocity, node 5, m/s
         81   -2.979E-03                                 F               0         Tower Z translation velocity, node 5, m/s
         82    1.499E-04                                 F               0         Tower X translation velocity, node 6, m/s
         83    2.569E-03                                 F               0         Tower Y translation velocity, node 6, m/s
         84   -2.960E-03                                 F               0         Tower Z translation velocity, node 6, m/s
         85    1.333E-04                                 F               0         Tower X translation velocity, node 7, m/s
         86    2.971E-03                                 F               0         Tower Y translation velocity, node 7, m/s
         87   -2.941E-03                                 F               0         Tower Z translation velocity, node 7, m/s
         88    1.035E-04                                 F               0         Tower X translation velocity, node 8, m/s
         89    3.371E-03                                 F               0         Tower Y translation velocity, node 8, m/s
         90   -2.920E-03                                 F               0         Tower Z translation velocity, node 8, m/s
         91    6.248E-05                                 F               0         Tower X translation velocity, node 9, m/s
         92    3.769E-03                                 F               0         Tower Y translation velocity, node 9, m/s
         93   -2.898E-03                                 F               0         Tower Z translation velocity, node 9, m/s
         94    1.264E-05                                 F               0         Tower X translation velocity, node 10, m/s
         95    4.166E-03                                 F               0         Tower Y translation velocity, node 10, m/s
         96   -2.875E-03                                 F               0         Tower Z translation velocity, node 10, m/s
         97   -4.311E-05                                 F               0         Tower X translation velocity, node 11, m/s
         98    4.562E-03                                 F               0         Tower Y translation velocity, node 11, m/s
         99   -2.852E-03                                 F               0         Tower Z translation velocity, node 11, m/s
        100    1.881E+01                                 F               0         Hub X translation displacement, node 1, m
        101   -7.245E+00                                 F               0         Hub Y translation displacement, node 1, m
        102    1.631E-01                                 F               0         Hub Z translation displacement, node 1, m
        103    9.813E-01,  9.104E-03, -1.925E-01         F               0         Hub X orientation angle, node 1, rad
        104    1.586E-01, -6.054E-01,  7.800E-01         F               0         Hub Y orientation angle, node 1, rad
        105   -1.094E-01, -7.959E-01, -5.955E-01         F               0         Hub Z orientation angle, node 1, rad
        106    6.942E-01                                 F               0         Hub X rotation velocity, node 1, rad/s
        107    6.437E-03                                 F               0         Hub Y rotation velocity, node 1, rad/s
        108   -1.362E-01                                 F               0         Hub Z rotation velocity, node 1, rad/s
        109    9.761E-01,  2.706E-02, -2.155E-01         F               0         Blade root 1 X orientation angle, node 1, rad
        110    1.877E-01, -6.048E-01,  7.739E-01         F               0         Blade root 1 Y orientation angle, node 1, rad
        111   -1.094E-01, -7.959E-01, -5.955E-01         F               0         Blade root 1 Z orientation angle, node 1, rad
        112    9.860E-01,  2.057E-02, -1.655E-01         F               0         Blade root 2 X orientation angle, node 1, rad
        113   -1.449E-01, -3.861E-01, -9.110E-01         F               0         Blade root 2 Y orientation angle, node 1, rad
        114   -8.265E-02,  9.222E-01, -3.777E-01         F               0         Blade root 2 Z orientation angle, node 1, rad
        115    9.804E-01, -2.033E-02, -1.961E-01         F               0         Blade root 3 X orientation angle, node 1, rad
        116    4.456E-02,  9.918E-01,  1.199E-01         F               0         Blade root 3 Y orientation angle, node 1, rad
        117    1.921E-01, -1.263E-01,  9.732E-01         F               0         Blade root 3 Z orientation angle, node 1, rad
        118    1.763E+01                                 F               0         Blade 1 X translation displacement, node 1, m
        119   -1.165E+01                                 F               0         Blade 1 Y translation displacement, node 1, m
        120   -8.646E+00                                 F               0         Blade 1 Z translation displacement, node 1, m
        121    1.734E+01                                 F               0         Blade 1 X translation displacement, node 2, m
        122   -1.272E+01                                 F               0         Blade 1 Y translation displacement, node 2, m
        123   -1.077E+01                                 F               0         Blade 1 Z translation displacement, node 2, m
        124    1.346E+01                                 F               0         Blade 1 X translation displacement, node 3, m
        125   -2.716E+01                                 F               0         Blade 1 Y translation displacement, node 3, m
        126   -3.963E+01                                 F               0         Blade 1 Z translation displacement, node 3, m
        127    1.263E+01                                 F               0         Blade 1 X translation displacement, node 4, m
        128   -3.024E+01                                 F               0         Blade 1 Y translation displacement, node 4, m
        129   -4.578E+01                                 F               0         Blade 1 Z translation displacement, node 4, m
        130    1.180E+01                                 F               0         Blade 1 X translation displacement, node 5, m
        131   -3.332E+01                                 F               0         Blade 1 Y translation displacement, node 5, m
        132   -5.193E+01                                 F               0         Blade 1 Z translation displacement, node 5, m
        133    1.097E+01                                 F               0         Blade 1 X translation displacement, node 6, m
        134   -3.640E+01                                 F               0         Blade 1 Y translation displacement, node 6, m
        135   -5.808E+01                                 F               0         Blade 1 Z translation displacement, node 6, m
        136    1.015E+01                                 F               0         Blade 1 X translation displacement, node 7, m
        137   -3.948E+01                                 F               0         Blade 1 Y translation displacement, node 7, m
        138   -6.423E+01                                 F               0         Blade 1 Z translation displacement, node 7, m
        139    9.320E+00                                 F               0         Blade 1 X translation displacement, node 8, m
        140   -4.256E+01                                 F               0         Blade 1 Y translation displacement, node 8, m
        141   -7.038E+01                                 F               0         Blade 1 Z translation displacement, node 8, m
        142    8.492E+00                                 F               0         Blade 1 X translation displacement, node 9, m
        143   -4.563E+01                                 F               0         Blade 1 Y translation displacement, node 9, m
        144   -7.653E+01                                 F               0         Blade 1 Z translation displacement, node 9, m
        145    7.665E+00                                 F               0         Blade 1 X translation displacement, node 10, m
        146   -4.871E+01                                 F               0         Blade 1 Y translation displacement, node 10, m
        147   -8.268E+01                                 F               0         Blade 1 Z translation displacement, node 10, m
        148    6.838E+00                                 F               0         Blade 1 X translation displacement, node 11, m
        149   -5.179E+01                                 F               0         Blade 1 Y translation displacement, node 11, m
        150   -8.883E+01                                 F               0         Blade 1 Z translation displacement, node 11, m
        151    6.010E+00                                 F               0         Blade 1 X translation displacement, node 12, m
        152   -5.487E+01                                 F               0         Blade 1 Y translation displacement, node 12, m
        153   -9.498E+01                                 F               0         Blade 1 Z translation displacement, node 12, m
        154    5.183E+00                                 F               0         Blade 1 X translation displacement, node 13, m
        155   -5.795E+01                                 F               0         Blade 1 Y translation displacement, node 13, m
        156   -1.011E+02                                 F               0         Blade 1 Z translation displacement, node 13, m
        157    4.355E+00                                 F               0         Blade 1 X translation displacement, node 14, m
        158   -6.102E+01                                 F               0         Blade 1 Y translation displacement, node 14, m
        159   -1.073E+02                                 F               0         Blade 1 Z translation displacement, node 14, m
        160    3.528E+00                                 F               0         Blade 1 X translation displacement, node 15, m
        161   -6.410E+01                                 F               0         Blade 1 Y translation displacement, node 15, m
        162   -1.134E+02                                 F               0         Blade 1 Z translation displacement, node 15, m
        163    2.700E+00                                 F               0         Blade 1 X translation displacement, node 16, m
        164   -6.718E+01                                 F               0         Blade 1 Y translation displacement, node 16, m
        165   -1.196E+02                                 F               0         Blade 1 Z translation displacement, node 16, m
        166    1.873E+00                                 F               0         Blade 1 X translation displacement, node 17, m
        167   -7.026E+01                                 F               0         Blade 1 Y translation displacement, node 17, m
        168   -1.257E+02                                 F               0         Blade 1 Z translation displacement, node 17, m
        169    1.045E+00                                 F               0         Blade 1 X translation displacement, node 18, m
        170   -7.334E+01                                 F               0         Blade 1 Y translation displacement, node 18, m
        171   -1.319E+02                                 F               0         Blade 1 Z translation displacement, node 18, m
        172    2.177E-01                                 F               0         Blade 1 X translation displacement, node 19, m
        173   -7.642E+01                                 F               0         Blade 1 Y translation displacement, node 19, m
        174   -1.380E+02                                 F               0         Blade 1 Z translation displacement, node 19, m
        175   -6.097E-01                                 F               0         Blade 1 X translation displacement, node 20, m
        176   -7.949E+01                                 F               0         Blade 1 Y translation displacement, node 20, m
        177   -1.442E+02                                 F               0         Blade 1 Z translation displacement, node 20, m
        178   -1.437E+00                                 F               0         Blade 1 X translation displacement, node 21, m
        179   -8.257E+01                                 F               0         Blade 1 Y translation displacement, node 21, m
        180   -1.503E+02                                 F               0         Blade 1 Z translation displacement, node 21, m
        181   -2.265E+00                                 F               0         Blade 1 X translation displacement, node 22, m
        182   -8.565E+01                                 F               0         Blade 1 Y translation displacement, node 22, m
        183   -1.565E+02                                 F               0         Blade 1 Z translation displacement, node 22, m
        184   -3.092E+00                                 F               0         Blade 1 X translation displacement, node 23, m
        185   -8.873E+01                                 F               0         Blade 1 Y translation displacement, node 23, m
        186   -1.626E+02                                 F               0         Blade 1 Z translation displacement, node 23, m
        187   -3.920E+00                                 F               0         Blade 1 X translation displacement, node 24, m
        188   -9.181E+01                                 F               0         Blade 1 Y translation displacement, node 24, m
        189   -1.688E+02                                 F               0         Blade 1 Z translation displacement, node 24, m
        190   -4.747E+00                                 F               0         Blade 1 X translation displacement, node 25, m
        191   -9.489E+01                                 F               0         Blade 1 Y translation displacement, node 25, m
        192   -1.749E+02                                 F               0         Blade 1 Z translation displacement, node 25, m
        193   -5.575E+00                                 F               0         Blade 1 X translation displacement, node 26, m
        194   -9.796E+01                                 F               0         Blade 1 Y translation displacement, node 26, m
        195   -1.811E+02                                 F               0         Blade 1 Z translation displacement, node 26, m
        196   -6.402E+00                                 F               0         Blade 1 X translation displacement, node 27, m
        197   -1.010E+02                                 F               0         Blade 1 Y translation displacement, node 27, m
        198   -1.872E+02                                 F               0         Blade 1 Z translation displacement, node 27, m
        199   -7.104E+00                                 F               0         Blade 1 X translation displacement, node 28, m
        200   -1.037E+02                                 F               0         Blade 1 Y translation displacement, node 28, m
        201   -1.924E+02                                 F               0         Blade 1 Z translation displacement, node 28, m
        202    7.832E-01,  2.999E-01, -5.447E-01         F               0         Blade 1 X orientation angle, node 1, rad
        203    6.121E-01, -5.259E-01,  5.905E-01         F               0         Blade 1 Y orientation angle, node 1, rad
        204   -1.094E-01, -7.959E-01, -5.955E-01         F               0         Blade 1 Z orientation angle, node 1, rad
        205    7.832E-01,  2.999E-01, -5.447E-01         F               0         Blade 1 X orientation angle, node 2, rad
        206    6.121E-01, -5.259E-01,  5.905E-01         F               0         Blade 1 Y orientation angle, node 2, rad
        207   -1.094E-01, -7.959E-01, -5.955E-01         F               0         Blade 1 Z orientation angle, node 2, rad
        208    9.059E-01,  1.667E-01, -3.893E-01         F               0         Blade 1 X orientation angle, node 3, rad
        209    4.091E-01, -5.820E-01,  7.028E-01         F               0         Blade 1 Y orientation angle, node 3, rad
        210   -1.094E-01, -7.959E-01, -5.955E-01         F               0         Blade 1 Z orientation angle, node 3, rad
        211    9.224E-01,  1.420E-01, -3.592E-01         F               0         Blade 1 X orientation angle, node 4, rad
        212    3.705E-01, -5.886E-01,  7.186E-01         F               0         Blade 1 Y orientation angle, node 4, rad
        213   -1.094E-01, -7.959E-01, -5.955E-01         F               0         Blade 1 Z orientation angle, node 4, rad
        214    9.342E-01,  1.224E-01, -3.352E-01         F               0         Blade 1 X orientation angle, node 5, rad
        215    3.397E-01, -5.929E-01,  7.301E-01         F               0         Blade 1 Y orientation angle, node 5, rad
        216   -1.094E-01, -7.959E-01, -5.955E-01         F               0         Blade 1 Z orientation angle, node 5, rad
        217    9.428E-01,  1.066E-01, -3.157E-01         F               0         Blade 1 X orientation angle, node 6, rad
        218    3.148E-01, -5.960E-01,  7.387E-01         F               0         Blade 1 Y orientation angle, node 6, rad
        219   -1.094E-01, -7.959E-01, -5.955E-01         F               0         Blade 1 Z orientation angle, node 6, rad
        220    9.495E-01,  9.358E-02, -2.995E-01         F               0         Blade 1 X orientation angle, node 7, rad
        221    2.941E-01, -5.982E-01,  7.454E-01         F               0         Blade 1 Y orientation angle, node 7, rad
        222   -1.094E-01, -7.959E-01, -5.955E-01         F               0         Blade 1 Z orientation angle, node 7, rad
        223    9.547E-01,  8.271E-02, -2.860E-01         F               0         Blade 1 X orientation angle, node 8, rad
        224    2.768E-01, -5.998E-01,  7.508E-01         F               0         Blade 1 Y orientation angle, node 8, rad
        225   -1.094E-01, -7.959E-01, -5.955E-01         F               0         Blade 1 Z orientation angle, node 8, rad
        226    9.588E-01,  7.349E-02, -2.744E-01         F               0         Blade 1 X orientation angle, node 9, rad
        227    2.622E-01, -6.010E-01,  7.551E-01         F               0         Blade 1 Y orientation angle, node 9, rad