
Linearized model: Predictions were generated on 08-Jan-2024 at 09:43:14 using OpenFAST, compiled as a 64-bit application using single precision at commit v3.5.1
 linked with  NWTC Subroutine Library; ElastoDyn; InflowWind; AeroDyn; ServoDyn; HydroDyn; MoorDyn (v2.0.0, 2023-09-18)

Description from the FAST input file: CCT-9 Campign 4 model. Input files to be run with OpenFAST 3.5.0. GitHub branch from Lu Wang (https://github.com/luwang00/openfast/tree/dev) compiled on March 7, 2023.

Simulation information:
   Simulation time:                  1007.7000 s
   Rotor Speed:                         0.7078 rad/s
   Azimuth:                             4.6353 rad
   Wind Speed:                          8.0000 m/s
   Number of continuous states:         0
   Number of discrete states:           0
   Number of constraint states:         0
   Number of inputs:                 1746
   Number of outputs:                   4
   Jacobians included in this file?    No

Order of inputs:
     Column   Operating Point                     Rotating Frame? Derivative Order Description
   ---------- ---------------                     --------------- ---------------- -----------
          1    7.250E+00                                 F               0         Tower X translation displacement, node 1, m
          2   -1.279E+00                                 F               0         Tower Y translation displacement, node 1, m
          3   -1.658E-01                                 F               0         Tower Z translation displacement, node 1, m
          4    8.292E+00                                 F               0         Tower X translation displacement, node 2, m
          5   -1.820E+00                                 F               0         Tower Y translation displacement, node 2, m
          6   -2.217E-01                                 F               0         Tower Z translation displacement, node 2, m
          7    9.350E+00                                 F               0         Tower X translation displacement, node 3, m
          8   -2.366E+00                                 F               0         Tower Y translation displacement, node 3, m
          9   -2.792E-01                                 F               0         Tower Z translation displacement, node 3, m
         10    1.042E+01                                 F               0         Tower X translation displacement, node 4, m
         11   -2.916E+00                                 F               0         Tower Y translation displacement, node 4, m
         12   -3.379E-01                                 F               0         Tower Z translation displacement, node 4, m
         13    1.150E+01                                 F               0         Tower X translation displacement, node 5, m
         14   -3.470E+00                                 F               0         Tower Y translation displacement, node 5, m
         15   -3.976E-01                                 F               0         Tower Z translation displacement, node 5, m
         16    1.258E+01                                 F               0         Tower X translation displacement, node 6, m
         17   -4.027E+00                                 F               0         Tower Y translation displacement, node 6, m
         18   -4.580E-01                                 F               0         Tower Z translation displacement, node 6, m
         19    1.368E+01                                 F               0         Tower X translation displacement, node 7, m
         20   -4.586E+00                                 F               0         Tower Y translation displacement, node 7, m
         21   -5.190E-01                                 F               0         Tower Z translation displacement, node 7, m
         22    1.477E+01                                 F               0         Tower X translation displacement, node 8, m
         23   -5.147E+00                                 F               0         Tower Y translation displacement, node 8, m
         24   -5.805E-01                                 F               0         Tower Z translation displacement, node 8, m
         25    1.587E+01                                 F               0         Tower X translation displacement, node 9, m
         26   -5.709E+00                                 F               0         Tower Y translation displacement, node 9, m
         27   -6.422E-01                                 F               0         Tower Z translation displacement, node 9, m
         28    1.697E+01                                 F               0         Tower X translation displacement, node 10, m
         29   -6.273E+00                                 F               0         Tower Y translation displacement, node 10, m
         30   -7.041E-01                                 F               0         Tower Z translation displacement, node 10, m
         31    1.807E+01                                 F               0         Tower X translation displacement, node 11, m
         32   -6.837E+00                                 F               0         Tower Y translation displacement, node 11, m
         33   -7.662E-01                                 F               0         Tower Z translation displacement, node 11, m
         34    9.965E-01,  4.123E-03, -8.373E-02         F               0         Tower X orientation angle, node 1, rad
         35   -4.514E-04,  9.990E-01,  4.382E-02         F               0         Tower Y orientation angle, node 1, rad
         36    8.383E-02, -4.363E-02,  9.955E-01         F               0         Tower Z orientation angle, node 1, rad
         37    9.964E-01,  4.176E-03, -8.494E-02         F               0         Tower X orientation angle, node 2, rad
         38   -4.179E-04,  9.990E-01,  4.421E-02         F               0         Tower Y orientation angle, node 2, rad
         39    8.504E-02, -4.402E-02,  9.954E-01         F               0         Tower Z orientation angle, node 2, rad
         40    9.963E-01,  4.222E-03, -8.598E-02         F               0         Tower X orientation angle, node 3, rad
         41   -3.874E-04,  9.990E-01,  4.457E-02         F               0         Tower Y orientation angle, node 3, rad
         42    8.608E-02, -4.437E-02,  9.953E-01         F               0         Tower Z orientation angle, node 3, rad
         43    9.962E-01,  4.260E-03, -8.683E-02         F               0         Tower X orientation angle, node 4, rad
         44   -3.605E-04,  9.990E-01,  4.488E-02         F               0         Tower Y orientation angle, node 4, rad
         45    8.694E-02, -4.468E-02,  9.952E-01         F               0         Tower Z orientation angle, node 4, rad
         46    9.962E-01,  4.291E-03, -8.752E-02         F               0         Tower X orientation angle, node 5, rad
         47   -3.372E-04,  9.990E-01,  4.514E-02         F               0         Tower Y orientation angle, node 5, rad
         48    8.762E-02, -4.494E-02,  9.951E-01         F               0         Tower Z orientation angle, node 5, rad
         49    9.961E-01,  4.315E-03, -8.804E-02         F               0         Tower X orientation angle, node 6, rad
         50   -3.176E-04,  9.990E-01,  4.537E-02         F               0         Tower Y orientation angle, node 6, rad
         51    8.814E-02, -4.516E-02,  9.951E-01         F               0         Tower Z orientation angle, node 6, rad
         52    9.961E-01,  4.332E-03, -8.841E-02         F               0         Tower X orientation angle, node 7, rad
         53   -3.019E-04,  9.990E-01,  4.554E-02         F               0         Tower Y orientation angle, node 7, rad
         54    8.851E-02, -4.534E-02,  9.950E-01         F               0         Tower Z orientation angle, node 7, rad
         55    9.961E-01,  4.343E-03, -8.866E-02         F               0         Tower X orientation angle, node 8, rad
         56   -2.897E-04,  9.990E-01,  4.568E-02         F               0         Tower Y orientation angle, node 8, rad
         57    8.877E-02, -4.548E-02,  9.950E-01         F               0         Tower Z orientation angle, node 8, rad
         58    9.960E-01,  4.351E-03, -8.882E-02         F               0         Tower X orientation angle, node 9, rad
         59   -2.807E-04,  9.990E-01,  4.578E-02         F               0         Tower Y orientation angle, node 9, rad
         60    8.893E-02, -4.558E-02,  9.950E-01         F               0         Tower Z orientation angle, node 9, rad
         61    9.960E-01,  4.355E-03, -8.891E-02         F               0         Tower X orientation angle, node 10, rad
         62   -2.749E-04,  9.989E-01,  4.585E-02         F               0         Tower Y orientation angle, node 10, rad
         63    8.902E-02, -4.564E-02,  9.950E-01         F               0         Tower Z orientation angle, node 10, rad
         64    9.960E-01,  4.357E-03, -8.895E-02         F               0         Tower X orientation angle, node 11, rad
         65   -2.717E-04,  9.989E-01,  4.589E-02         F               0         Tower Y orientation angle, node 11, rad
         66    8.906E-02, -4.568E-02,  9.950E-01         F               0         Tower Z orientation angle, node 11, rad
         67   -2.493E-04                                 F               0         Tower X translation velocity, node 1, m/s
         68   -1.041E-03                                 F               0         Tower Y translation velocity, node 1, m/s
         69   -1.240E-03                                 F               0         Tower Z translation velocity, node 1, m/s
         70   -2.828E-04                                 F               0         Tower X translation velocity, node 2, m/s
         71   -1.144E-03                                 F               0         Tower Y translation velocity, node 2, m/s
         72   -1.242E-03                                 F               0         Tower Z translation velocity, node 2, m/s
         73   -3.251E-04                                 F               0         Tower X translation velocity, node 3, m/s
         74   -1.231E-03                                 F               0         Tower Y translation velocity, node 3, m/s
         75   -1.242E-03                                 F               0         Tower Z translation velocity, node 3, m/s
         76   -3.750E-04                                 F               0         Tower X translation velocity, node 4, m/s
         77   -1.306E-03                                 F               0         Tower Y translation velocity, node 4, m/s
         78   -1.241E-03                                 F               0         Tower Z translation velocity, node 4, m/s
         79   -4.319E-04                                 F               0         Tower X translation velocity, node 5, m/s
         80   -1.369E-03                                 F               0         Tower Y translation velocity, node 5, m/s
         81   -1.239E-03                                 F               0         Tower Z translation velocity, node 5, m/s
         82   -4.952E-04                                 F               0         Tower X translation velocity, node 6, m/s
         83   -1.421E-03                                 F               0         Tower Y translation velocity, node 6, m/s
         84   -1.236E-03                                 F               0         Tower Z translation velocity, node 6, m/s
         85   -5.639E-04                                 F               0         Tower X translation velocity, node 7, m/s
         86   -1.465E-03                                 F               0         Tower Y translation velocity, node 7, m/s
         87   -1.232E-03                                 F               0         Tower Z translation velocity, node 7, m/s
         88   -6.377E-04                                 F               0         Tower X translation velocity, node 8, m/s
         89   -1.502E-03                                 F               0         Tower Y translation velocity, node 8, m/s
         90   -1.227E-03                                 F               0         Tower Z translation velocity, node 8, m/s
         91   -7.156E-04                                 F               0         Tower X translation velocity, node 9, m/s
         92   -1.531E-03                                 F               0         Tower Y translation velocity, node 9, m/s
         93   -1.221E-03                                 F               0         Tower Z translation velocity, node 9, m/s
         94   -7.967E-04                                 F               0         Tower X translation velocity, node 10, m/s
         95   -1.557E-03                                 F               0         Tower Y translation velocity, node 10, m/s
         96   -1.215E-03                                 F               0         Tower Z translation velocity, node 10, m/s
         97   -8.797E-04                                 F               0         Tower X translation velocity, node 11, m/s
         98   -1.579E-03                                 F               0         Tower Y translation velocity, node 11, m/s
         99   -1.209E-03                                 F               0         Tower Z translation velocity, node 11, m/s
        100    1.881E+01                                 F               0         Hub X translation displacement, node 1, m
        101   -7.243E+00                                 F               0         Hub Y translation displacement, node 1, m
        102    1.552E-01                                 F               0         Hub Z translation displacement, node 1, m
        103    9.813E-01,  9.108E-03, -1.925E-01         F               0         Hub X orientation angle, node 1, rad
        104   -1.921E-01, -3.205E-02, -9.809E-01         F               0         Hub Y orientation angle, node 1, rad
        105   -1.510E-02,  9.994E-01, -2.970E-02         F               0         Hub Z orientation angle, node 1, rad
        106    6.945E-01                                 F               0         Hub X rotation velocity, node 1, rad/s
        107    6.440E-03                                 F               0         Hub Y rotation velocity, node 1, rad/s
        108   -1.362E-01                                 F               0         Hub Z rotation velocity, node 1, rad/s
        109    9.865E-01,  1.005E-02, -1.633E-01         F               0         Blade root 1 X orientation angle, node 1, rad
        110   -1.629E-01, -3.177E-02, -9.861E-01         F               0         Blade root 1 Y orientation angle, node 1, rad
        111   -1.510E-02,  9.994E-01, -2.970E-02         F               0         Blade root 1 Z orientation angle, node 1, rad
        112    9.784E-01, -1.705E-02, -2.062E-01         F               0         Blade root 2 X orientation angle, node 1, rad
        113    1.120E-01,  8.815E-01,  4.588E-01         F               0         Blade root 2 Y orientation angle, node 1, rad
        114    1.739E-01, -4.720E-01,  8.643E-01         F               0         Blade root 2 Z orientation angle, node 1, rad
        115    9.776E-01,  3.431E-02, -2.077E-01         F               0         Blade root 3 X orientation angle, node 1, rad
        116    1.382E-01, -8.489E-01,  5.102E-01         F               0         Blade root 3 Y orientation angle, node 1, rad
        117   -1.588E-01, -5.275E-01, -8.346E-01         F               0         Blade root 3 Z orientation angle, node 1, rad
        118    1.815E+01                                 F               0         Blade 1 X translation displacement, node 1, m
        119   -1.706E+00                                 F               0         Blade 1 Y translation displacement, node 1, m
        120   -5.519E+00                                 F               0         Blade 1 Z translation displacement, node 1, m
        121    1.799E+01                                 F               0         Blade 1 X translation displacement, node 2, m
        122   -3.719E-01                                 F               0         Blade 1 Y translation displacement, node 2, m
        123   -6.886E+00                                 F               0         Blade 1 Z translation displacement, node 2, m
        124    1.582E+01                                 F               0         Blade 1 X translation displacement, node 3, m
        125    1.777E+01                                 F               0         Blade 1 Y translation displacement, node 3, m
        126   -2.548E+01                                 F               0         Blade 1 Z translation displacement, node 3, m
        127    1.535E+01                                 F               0         Blade 1 X translation displacement, node 4, m
        128    2.164E+01                                 F               0         Blade 1 Y translation displacement, node 4, m
        129   -2.944E+01                                 F               0         Blade 1 Z translation displacement, node 4, m
        130    1.489E+01                                 F               0         Blade 1 X translation displacement, node 5, m
        131    2.550E+01                                 F               0         Blade 1 Y translation displacement, node 5, m
        132   -3.340E+01                                 F               0         Blade 1 Z translation displacement, node 5, m
        133    1.443E+01                                 F               0         Blade 1 X translation displacement, node 6, m
        134    2.937E+01                                 F               0         Blade 1 Y translation displacement, node 6, m
        135   -3.736E+01                                 F               0         Blade 1 Z translation displacement, node 6, m
        136    1.397E+01                                 F               0         Blade 1 X translation displacement, node 7, m
        137    3.323E+01                                 F               0         Blade 1 Y translation displacement, node 7, m
        138   -4.132E+01                                 F               0         Blade 1 Z translation displacement, node 7, m
        139    1.350E+01                                 F               0         Blade 1 X translation displacement, node 8, m
        140    3.710E+01                                 F               0         Blade 1 Y translation displacement, node 8, m
        141   -4.529E+01                                 F               0         Blade 1 Z translation displacement, node 8, m
        142    1.304E+01                                 F               0         Blade 1 X translation displacement, node 9, m
        143    4.096E+01                                 F               0         Blade 1 Y translation displacement, node 9, m
        144   -4.925E+01                                 F               0         Blade 1 Z translation displacement, node 9, m
        145    1.258E+01                                 F               0         Blade 1 X translation displacement, node 10, m
        146    4.483E+01                                 F               0         Blade 1 Y translation displacement, node 10, m
        147   -5.321E+01                                 F               0         Blade 1 Z translation displacement, node 10, m
        148    1.212E+01                                 F               0         Blade 1 X translation displacement, node 11, m
        149    4.869E+01                                 F               0         Blade 1 Y translation displacement, node 11, m
        150   -5.717E+01                                 F               0         Blade 1 Z translation displacement, node 11, m
        151    1.165E+01                                 F               0         Blade 1 X translation displacement, node 12, m
        152    5.256E+01                                 F               0         Blade 1 Y translation displacement, node 12, m
        153   -6.113E+01                                 F               0         Blade 1 Z translation displacement, node 12, m
        154    1.119E+01                                 F               0         Blade 1 X translation displacement, node 13, m
        155    5.643E+01                                 F               0         Blade 1 Y translation displacement, node 13, m
        156   -6.509E+01                                 F               0         Blade 1 Z translation displacement, node 13, m
        157    1.073E+01                                 F               0         Blade 1 X translation displacement, node 14, m
        158    6.029E+01                                 F               0         Blade 1 Y translation displacement, node 14, m
        159   -6.905E+01                                 F               0         Blade 1 Z translation displacement, node 14, m
        160    1.026E+01                                 F               0         Blade 1 X translation displacement, node 15, m
        161    6.416E+01                                 F               0         Blade 1 Y translation displacement, node 15, m
        162   -7.302E+01                                 F               0         Blade 1 Z translation displacement, node 15, m
        163    9.802E+00                                 F               0         Blade 1 X translation displacement, node 16, m
        164    6.802E+01                                 F               0         Blade 1 Y translation displacement, node 16, m
        165   -7.698E+01                                 F               0         Blade 1 Z translation displacement, node 16, m
        166    9.339E+00                                 F               0         Blade 1 X translation displacement, node 17, m
        167    7.189E+01                                 F               0         Blade 1 Y translation displacement, node 17, m
        168   -8.094E+01                                 F               0         Blade 1 Z translation displacement, node 17, m
        169    8.877E+00                                 F               0         Blade 1 X translation displacement, node 18, m
        170    7.575E+01                                 F               0         Blade 1 Y translation displacement, node 18, m
        171   -8.490E+01                                 F               0         Blade 1 Z translation displacement, node 18, m
        172    8.414E+00                                 F               0         Blade 1 X translation displacement, node 19, m
        173    7.962E+01                                 F               0         Blade 1 Y translation displacement, node 19, m
        174   -8.886E+01                                 F               0         Blade 1 Z translation displacement, node 19, m
        175    7.951E+00                                 F               0         Blade 1 X translation displacement, node 20, m
        176    8.348E+01                                 F               0         Blade 1 Y translation displacement, node 20, m
        177   -9.282E+01                                 F               0         Blade 1 Z translation displacement, node 20, m
        178    7.488E+00                                 F               0         Blade 1 X translation displacement, node 21, m
        179    8.735E+01                                 F               0         Blade 1 Y translation displacement, node 21, m
        180   -9.678E+01                                 F               0         Blade 1 Z translation displacement, node 21, m
        181    7.026E+00                                 F               0         Blade 1 X translation displacement, node 22, m
        182    9.122E+01                                 F               0         Blade 1 Y translation displacement, node 22, m
        183   -1.007E+02                                 F               0         Blade 1 Z translation displacement, node 22, m
        184    6.563E+00                                 F               0         Blade 1 X translation displacement, node 23, m
        185    9.508E+01                                 F               0         Blade 1 Y translation displacement, node 23, m
        186   -1.047E+02                                 F               0         Blade 1 Z translation displacement, node 23, m
        187    6.100E+00                                 F               0         Blade 1 X translation displacement, node 24, m
        188    9.895E+01                                 F               0         Blade 1 Y translation displacement, node 24, m
        189   -1.087E+02                                 F               0         Blade 1 Z translation displacement, node 24, m
        190    5.638E+00                                 F               0         Blade 1 X translation displacement, node 25, m
        191    1.028E+02                                 F               0         Blade 1 Y translation displacement, node 25, m
        192   -1.126E+02                                 F               0         Blade 1 Z translation displacement, node 25, m
        193    5.175E+00                                 F               0         Blade 1 X translation displacement, node 26, m
        194    1.067E+02                                 F               0         Blade 1 Y translation displacement, node 26, m
        195   -1.166E+02                                 F               0         Blade 1 Z translation displacement, node 26, m
        196    4.712E+00                                 F               0         Blade 1 X translation displacement, node 27, m
        197    1.105E+02                                 F               0         Blade 1 Y translation displacement, node 27, m
        198   -1.206E+02                                 F               0         Blade 1 Z translation displacement, node 27, m
        199    4.320E+00                                 F               0         Blade 1 X translation displacement, node 28, m
        200    1.138E+02                                 F               0         Blade 1 Y translation displacement, node 28, m
        201   -1.239E+02                                 F               0         Blade 1 Z translation displacement, node 28, m
        202    9.523E-01,  2.344E-02,  3.044E-01         F               0         Blade 1 X orientation angle, node 1, rad
        203    3.049E-01, -2.369E-02, -9.521E-01         F               0         Blade 1 Y orientation angle, node 1, rad
        204   -1.510E-02,  9.994E-01, -2.970E-02         F               0         Blade 1 Z orientation angle, node 1, rad
        205    9.523E-01,  2.344E-02,  3.044E-01         F               0         Blade 1 X orientation angle, node 2, rad
        206    3.049E-01, -2.369E-02, -9.521E-01         F               0         Blade 1 Y orientation angle, node 2, rad
        207   -1.510E-02,  9.994E-01, -2.970E-02         F               0         Blade 1 Z orientation angle, node 2, rad
        208    9.974E-01,  1.715E-02,  7.004E-02         F               0         Blade 1 X orientation angle, node 3, rad
        209    7.051E-02, -2.857E-02, -9.971E-01         F               0         Blade 1 Y orientation angle, node 3, rad
        210   -1.510E-02,  9.994E-01, -2.970E-02         F               0         Blade 1 Z orientation angle, node 3, rad
        211    9.995E-01,  1.593E-02,  2.788E-02         F               0         Blade 1 X orientation angle, node 4, rad
        212    2.834E-02, -2.927E-02, -9.992E-01         F               0         Blade 1 Y orientation angle, node 4, rad
        213   -1.510E-02,  9.994E-01, -2.970E-02         F               0         Blade 1 Z orientation angle, node 4, rad
        214    9.999E-01,  1.495E-02, -5.265E-03         F               0         Blade 1 X orientation angle, node 5, rad
        215   -4.818E-03, -2.978E-02, -9.995E-01         F               0         Blade 1 Y orientation angle, node 5, rad
        216   -1.510E-02,  9.994E-01, -2.970E-02         F               0         Blade 1 Z orientation angle, node 5, rad
        217    9.994E-01,  1.416E-02, -3.178E-02         F               0         Blade 1 X orientation angle, node 6, rad
        218   -3.134E-02, -3.016E-02, -9.991E-01         F               0         Blade 1 Y orientation angle, node 6, rad
        219   -1.510E-02,  9.994E-01, -2.970E-02         F               0         Blade 1 Z orientation angle, node 6, rad
        220    9.985E-01,  1.350E-02, -5.356E-02         F               0         Blade 1 X orientation angle, node 7, rad
        221   -5.313E-02, -3.047E-02, -9.981E-01         F               0         Blade 1 Y orientation angle, node 7, rad
        222   -1.510E-02,  9.994E-01, -2.970E-02         F               0         Blade 1 Z orientation angle, node 7, rad
        223    9.973E-01,  1.294E-02, -7.167E-02         F               0         Blade 1 X orientation angle, node 8, rad
        224   -7.125E-02, -3.071E-02, -9.970E-01         F               0         Blade 1 Y orientation angle, node 8, rad
        225   -1.510E-02,  9.994E-01, -2.970E-02         F               0         Blade 1 Z orientation angle, node 8, rad
        226    9.961E-01,  1.247E-02, -8.697E-02         F               0         Blade 1 X orientation angle, node 9, rad
        227   -8.656E-02, -3.090E-02, -9.958E-01         F               0         Blade 1 Y orientation angle, node 9, rad