
Linearized model: Predictions were generated on 08-Jan-2024 at 09:43:14 using OpenFAST, compiled as a 64-bit application using single precision at commit v3.5.1
 linked with  NWTC Subroutine Library; ElastoDyn; InflowWind; AeroDyn; ServoDyn; HydroDyn; MoorDyn (v2.0.0, 2023-09-18)

Description from the FAST input file: CCT-9 Campign 4 model. Input files to be run with OpenFAST 3.5.0. GitHub branch from Lu Wang (https://github.com/luwang00/openfast/tree/dev) compiled on March 7, 2023.

Simulation information:
   Simulation time:                  1001.5000 s
   Rotor Speed:                         0.7074 rad/s
   Azimuth:                             0.2484 rad
   Wind Speed:                          8.0000 m/s
   Number of continuous states:         0
   Number of discrete states:           0
   Number of constraint states:         0
   Number of inputs:                  303
   Number of outputs:                   1
   Jacobians included in this file?    No

Order of inputs:
     Column   Operating Point                     Rotating Frame? Derivative Order Description
   ---------- ---------------                     --------------- ---------------- -----------
          1   -1.080E+01                                 F               0         X-component position of node 1 (hub), m
          2    0.000E+00                                 F               0         Y-component position of node 1 (hub), m
          3    1.497E+02                                 F               0         Z-component position of node 1 (hub), m
          4    9.047E+00                                 F               0         X-component position of node 2 (blade 1, node 1), m
          5   -8.864E+00                                 F               0         Y-component position of node 2 (blade 1, node 1), m
          6    1.551E+02                                 F               0         Z-component position of node 2 (blade 1, node 1), m
          7    9.297E+00                                 F               0         X-component position of node 3 (blade 1, node 2), m
          8   -9.251E+00                                 F               0         Y-component position of node 3 (blade 1, node 2), m
          9    1.564E+02                                 F               0         Z-component position of node 3 (blade 1, node 2), m
         10    1.269E+01                                 F               0         X-component position of node 4 (blade 1, node 3), m
         11   -1.450E+01                                 F               0         Y-component position of node 4 (blade 1, node 3), m
         12    1.734E+02                                 F               0         Z-component position of node 4 (blade 1, node 3), m
         13    1.341E+01                                 F               0         X-component position of node 5 (blade 1, node 4), m
         14   -1.562E+01                                 F               0         Y-component position of node 5 (blade 1, node 4), m
         15    1.770E+02                                 F               0         Z-component position of node 5 (blade 1, node 4), m
         16    1.413E+01                                 F               0         X-component position of node 6 (blade 1, node 5), m
         17   -1.674E+01                                 F               0         Y-component position of node 6 (blade 1, node 5), m
         18    1.807E+02                                 F               0         Z-component position of node 6 (blade 1, node 5), m
         19    1.486E+01                                 F               0         X-component position of node 7 (blade 1, node 6), m
         20   -1.786E+01                                 F               0         Y-component position of node 7 (blade 1, node 6), m
         21    1.843E+02                                 F               0         Z-component position of node 7 (blade 1, node 6), m
         22    1.558E+01                                 F               0         X-component position of node 8 (blade 1, node 7), m
         23   -1.898E+01                                 F               0         Y-component position of node 8 (blade 1, node 7), m
         24    1.879E+02                                 F               0         Z-component position of node 8 (blade 1, node 7), m
         25    1.630E+01                                 F               0         X-component position of node 9 (blade 1, node 8), m
         26   -2.010E+01                                 F               0         Y-component position of node 9 (blade 1, node 8), m
         27    1.916E+02                                 F               0         Z-component position of node 9 (blade 1, node 8), m
         28    1.702E+01                                 F               0         X-component position of node 10 (blade 1, node 9), m
         29   -2.122E+01                                 F               0         Y-component position of node 10 (blade 1, node 9), m
         30    1.952E+02                                 F               0         Z-component position of node 10 (blade 1, node 9), m
         31    1.775E+01                                 F               0         X-component position of node 11 (blade 1, node 10), m
         32   -2.233E+01                                 F               0         Y-component position of node 11 (blade 1, node 10), m
         33    1.988E+02                                 F               0         Z-component position of node 11 (blade 1, node 10), m
         34    1.847E+01                                 F               0         X-component position of node 12 (blade 1, node 11), m
         35   -2.345E+01                                 F               0         Y-component position of node 12 (blade 1, node 11), m
         36    2.025E+02                                 F               0         Z-component position of node 12 (blade 1, node 11), m
         37    1.919E+01                                 F               0         X-component position of node 13 (blade 1, node 12), m
         38   -2.457E+01                                 F               0         Y-component position of node 13 (blade 1, node 12), m
         39    2.061E+02                                 F               0         Z-component position of node 13 (blade 1, node 12), m
         40    1.991E+01                                 F               0         X-component position of node 14 (blade 1, node 13), m
         41   -2.569E+01                                 F               0         Y-component position of node 14 (blade 1, node 13), m
         42    2.097E+02                                 F               0         Z-component position of node 14 (blade 1, node 13), m
         43    2.064E+01                                 F               0         X-component position of node 15 (blade 1, node 14), m
         44   -2.681E+01                                 F               0         Y-component position of node 15 (blade 1, node 14), m
         45    2.133E+02                                 F               0         Z-component position of node 15 (blade 1, node 14), m
         46    2.136E+01                                 F               0         X-component position of node 16 (blade 1, node 15), m
         47   -2.793E+01                                 F               0         Y-component position of node 16 (blade 1, node 15), m
         48    2.170E+02                                 F               0         Z-component position of node 16 (blade 1, node 15), m
         49    2.208E+01                                 F               0         X-component position of node 17 (blade 1, node 16), m
         50   -2.905E+01                                 F               0         Y-component position of node 17 (blade 1, node 16), m
         51    2.206E+02                                 F               0         Z-component position of node 17 (blade 1, node 16), m
         52    2.281E+01                                 F               0         X-component position of node 18 (blade 1, node 17), m
         53   -3.017E+01                                 F               0         Y-component position of node 18 (blade 1, node 17), m
         54    2.242E+02                                 F               0         Z-component position of node 18 (blade 1, node 17), m
         55    2.353E+01                                 F               0         X-component position of node 19 (blade 1, node 18), m
         56   -3.129E+01                                 F               0         Y-component position of node 19 (blade 1, node 18), m
         57    2.279E+02                                 F               0         Z-component position of node 19 (blade 1, node 18), m
         58    2.425E+01                                 F               0         X-component position of node 20 (blade 1, node 19), m
         59   -3.241E+01                                 F               0         Y-component position of node 20 (blade 1, node 19), m
         60    2.315E+02                                 F               0         Z-component position of node 20 (blade 1, node 19), m
         61    2.497E+01                                 F               0         X-component position of node 21 (blade 1, node 20), m
         62   -3.352E+01                                 F               0         Y-component position of node 21 (blade 1, node 20), m
         63    2.351E+02                                 F               0         Z-component position of node 21 (blade 1, node 20), m
         64    2.570E+01                                 F               0         X-component position of node 22 (blade 1, node 21), m
         65   -3.464E+01                                 F               0         Y-component position of node 22 (blade 1, node 21), m
         66    2.388E+02                                 F               0         Z-component position of node 22 (blade 1, node 21), m
         67    2.642E+01                                 F               0         X-component position of node 23 (blade 1, node 22), m
         68   -3.576E+01                                 F               0         Y-component position of node 23 (blade 1, node 22), m
         69    2.424E+02                                 F               0         Z-component position of node 23 (blade 1, node 22), m
         70    2.714E+01                                 F               0         X-component position of node 24 (blade 1, node 23), m
         71   -3.688E+01                                 F               0         Y-component position of node 24 (blade 1, node 23), m
         72    2.460E+02                                 F               0         Z-component position of node 24 (blade 1, node 23), m
         73    2.786E+01                                 F               0         X-component position of node 25 (blade 1, node 24), m
         74   -3.800E+01                                 F               0         Y-component position of node 25 (blade 1, node 24), m
         75    2.497E+02                                 F               0         Z-component position of node 25 (blade 1, node 24), m
         76    2.859E+01                                 F               0         X-component position of node 26 (blade 1, node 25), m
         77   -3.912E+01                                 F               0         Y-component position of node 26 (blade 1, node 25), m
         78    2.533E+02                                 F               0         Z-component position of node 26 (blade 1, node 25), m
         79    2.931E+01                                 F               0         X-component position of node 27 (blade 1, node 26), m
         80   -4.024E+01                                 F               0         Y-component position of node 27 (blade 1, node 26), m
         81    2.569E+02                                 F               0         Z-component position of node 27 (blade 1, node 26), m
         82    3.003E+01                                 F               0         X-component position of node 28 (blade 1, node 27), m
         83   -4.136E+01                                 F               0         Y-component position of node 28 (blade 1, node 27), m
         84    2.606E+02                                 F               0         Z-component position of node 28 (blade 1, node 27), m
         85    3.064E+01                                 F               0         X-component position of node 29 (blade 1, node 28), m
         86   -4.230E+01                                 F               0         Y-component position of node 29 (blade 1, node 28), m
         87    2.636E+02                                 F               0         Z-component position of node 29 (blade 1, node 28), m
         88    7.269E+00                                 F               0         X-component position of node 30 (blade 2, node 1), m
         89   -1.105E+01                                 F               0         Y-component position of node 30 (blade 2, node 1), m
         90    1.459E+02                                 F               0         Z-component position of node 30 (blade 2, node 1), m
         91    7.089E+00                                 F               0         X-component position of node 31 (blade 2, node 2), m
         92   -1.197E+01                                 F               0         Y-component position of node 31 (blade 2, node 2), m
         93    1.450E+02                                 F               0         Z-component position of node 31 (blade 2, node 2), m
         94    4.653E+00                                 F               0         X-component position of node 32 (blade 2, node 3), m
         95   -2.439E+01                                 F               0         Y-component position of node 32 (blade 2, node 3), m
         96    1.320E+02                                 F               0         Z-component position of node 32 (blade 2, node 3), m
         97    4.134E+00                                 F               0         X-component position of node 33 (blade 2, node 4), m
         98   -2.703E+01                                 F               0         Y-component position of node 33 (blade 2, node 4), m
         99    1.292E+02                                 F               0         Z-component position of node 33 (blade 2, node 4), m
        100    3.614E+00                                 F               0         X-component position of node 34 (blade 2, node 5), m
        101   -2.968E+01                                 F               0         Y-component position of node 34 (blade 2, node 5), m
        102    1.264E+02                                 F               0         Z-component position of node 34 (blade 2, node 5), m
        103    3.095E+00                                 F               0         X-component position of node 35 (blade 2, node 6), m
        104   -3.233E+01                                 F               0         Y-component position of node 35 (blade 2, node 6), m
        105    1.237E+02                                 F               0         Z-component position of node 35 (blade 2, node 6), m
        106    2.576E+00                                 F               0         X-component position of node 36 (blade 2, node 7), m
        107   -3.497E+01                                 F               0         Y-component position of node 36 (blade 2, node 7), m
        108    1.209E+02                                 F               0         Z-component position of node 36 (blade 2, node 7), m
        109    2.057E+00                                 F               0         X-component position of node 37 (blade 2, node 8), m
        110   -3.762E+01                                 F               0         Y-component position of node 37 (blade 2, node 8), m
        111    1.181E+02                                 F               0         Z-component position of node 37 (blade 2, node 8), m
        112    1.538E+00                                 F               0         X-component position of node 38 (blade 2, node 9), m
        113   -4.027E+01                                 F               0         Y-component position of node 38 (blade 2, node 9), m
        114    1.153E+02                                 F               0         Z-component position of node 38 (blade 2, node 9), m
        115    1.019E+00                                 F               0         X-component position of node 39 (blade 2, node 10), m
        116   -4.291E+01                                 F               0         Y-component position of node 39 (blade 2, node 10), m
        117    1.126E+02                                 F               0         Z-component position of node 39 (blade 2, node 10), m
        118    4.995E-01                                 F               0         X-component position of node 40 (blade 2, node 11), m
        119   -4.556E+01                                 F               0         Y-component position of node 40 (blade 2, node 11), m
        120    1.098E+02                                 F               0         Z-component position of node 40 (blade 2, node 11), m
        121   -1.974E-02                                 F               0         X-component position of node 41 (blade 2, node 12), m
        122   -4.821E+01                                 F               0         Y-component position of node 41 (blade 2, node 12), m
        123    1.070E+02                                 F               0         Z-component position of node 41 (blade 2, node 12), m
        124   -5.389E-01                                 F               0         X-component position of node 42 (blade 2, node 13), m
        125   -5.085E+01                                 F               0         Y-component position of node 42 (blade 2, node 13), m
        126    1.043E+02                                 F               0         Z-component position of node 42 (blade 2, node 13), m
        127   -1.058E+00                                 F               0         X-component position of node 43 (blade 2, node 14), m
        128   -5.350E+01                                 F               0         Y-component position of node 43 (blade 2, node 14), m
        129    1.015E+02                                 F               0         Z-component position of node 43 (blade 2, node 14), m
        130   -1.577E+00                                 F               0         X-component position of node 44 (blade 2, node 15), m
        131   -5.615E+01                                 F               0         Y-component position of node 44 (blade 2, node 15), m
        132    9.871E+01                                 F               0         Z-component position of node 44 (blade 2, node 15), m
        133   -2.096E+00                                 F               0         X-component position of node 45 (blade 2, node 16), m
        134   -5.880E+01                                 F               0         Y-component position of node 45 (blade 2, node 16), m
        135    9.594E+01                                 F               0         Z-component position of node 45 (blade 2, node 16), m
        136   -2.616E+00                                 F               0         X-component position of node 46 (blade 2, node 17), m
        137   -6.144E+01                                 F               0         Y-component position of node 46 (blade 2, node 17), m
        138    9.316E+01                                 F               0         Z-component position of node 46 (blade 2, node 17), m
        139   -3.135E+00                                 F               0         X-component position of node 47 (blade 2, node 18), m
        140   -6.409E+01                                 F               0         Y-component position of node 47 (blade 2, node 18), m
        141    9.039E+01                                 F               0         Z-component position of node 47 (blade 2, node 18), m
        142   -3.654E+00                                 F               0         X-component position of node 48 (blade 2, node 19), m
        143   -6.674E+01                                 F               0         Y-component position of node 48 (blade 2, node 19), m
        144    8.762E+01                                 F               0         Z-component position of node 48 (blade 2, node 19), m
        145   -4.173E+00                                 F               0         X-component position of node 49 (blade 2, node 20), m
        146   -6.938E+01                                 F               0         Y-component position of node 49 (blade 2, node 20), m
        147    8.485E+01                                 F               0         Z-component position of node 49 (blade 2, node 20), m
        148   -4.692E+00                                 F               0         X-component position of node 50 (blade 2, node 21), m
        149   -7.203E+01                                 F               0         Y-component position of node 50 (blade 2, node 21), m
        150    8.207E+01                                 F               0         Z-component position of node 50 (blade 2, node 21), m
        151   -5.211E+00                                 F               0         X-component position of node 51 (blade 2, node 22), m
        152   -7.468E+01                                 F               0         Y-component position of node 51 (blade 2, node 22), m
        153    7.930E+01                                 F               0         Z-component position of node 51 (blade 2, node 22), m
        154   -5.731E+00                                 F               0         X-component position of node 52 (blade 2, node 23), m
        155   -7.732E+01                                 F               0         Y-component position of node 52 (blade 2, node 23), m
        156    7.653E+01                                 F               0         Z-component position of node 52 (blade 2, node 23), m
        157   -6.250E+00                                 F               0         X-component position of node 53 (blade 2, node 24), m
        158   -7.997E+01                                 F               0         Y-component position of node 53 (blade 2, node 24), m
        159    7.376E+01                                 F               0         Z-component position of node 53 (blade 2, node 24), m
        160   -6.769E+00                                 F               0         X-component position of node 54 (blade 2, node 25), m
        161   -8.261E+01                                 F               0         Y-component position of node 54 (blade 2, node 25), m
        162    7.099E+01                                 F               0         Z-component position of node 54 (blade 2, node 25), m
        163   -7.288E+00                                 F               0         X-component position of node 55 (blade 2, node 26), m
        164   -8.526E+01                                 F               0         Y-component position of node 55 (blade 2, node 26), m
        165    6.821E+01                                 F               0         Z-component position of node 55 (blade 2, node 26), m
        166   -7.807E+00                                 F               0         X-component position of node 56 (blade 2, node 27), m
        167   -8.791E+01                                 F               0         Y-component position of node 56 (blade 2, node 27), m
        168    6.544E+01                                 F               0         Z-component position of node 56 (blade 2, node 27), m
        169   -8.247E+00                                 F               0         X-component position of node 57 (blade 2, node 28), m
        170   -9.015E+01                                 F               0         Y-component position of node 57 (blade 2, node 28), m
        171    6.309E+01                                 F               0         Z-component position of node 57 (blade 2, node 28), m
        172    7.721E+00                                 F               0         X-component position of node 58 (blade 3, node 1), m
        173   -1.868E+00                                 F               0         Y-component position of node 58 (blade 3, node 1), m
        174    1.487E+02                                 F               0         Z-component position of node 58 (blade 3, node 1), m
        175    7.651E+00                                 F               0         X-component position of node 59 (blade 3, node 2), m
        176   -5.682E-01                                 F               0         Y-component position of node 59 (blade 3, node 2), m
        177    1.484E+02                                 F               0         Z-component position of node 59 (blade 3, node 2), m
        178    6.695E+00                                 F               0         X-component position of node 60 (blade 3, node 3), m
        179    1.711E+01                                 F               0         Y-component position of node 60 (blade 3, node 3), m
        180    1.444E+02                                 F               0         Z-component position of node 60 (blade 3, node 3), m
        181    6.492E+00                                 F               0         X-component position of node 61 (blade 3, node 4), m
        182    2.087E+01                                 F               0         Y-component position of node 61 (blade 3, node 4), m
        183    1.435E+02                                 F               0         Z-component position of node 61 (blade 3, node 4), m
        184    6.289E+00                                 F               0         X-component position of node 62 (blade 3, node 5), m
        185    2.464E+01                                 F               0         Y-component position of node 62 (blade 3, node 5), m
        186    1.426E+02                                 F               0         Z-component position of node 62 (blade 3, node 5), m
        187    6.085E+00                                 F               0         X-component position of node 63 (blade 3, node 6), m
        188    2.840E+01                                 F               0         Y-component position of node 63 (blade 3, node 6), m
        189    1.418E+02                                 F               0         Z-component position of node 63 (blade 3, node 6), m
        190    5.882E+00                                 F               0         X-component position of node 64 (blade 3, node 7), m
        191    3.217E+01                                 F               0         Y-component position of node 64 (blade 3, node 7), m
        192    1.409E+02                                 F               0         Z-component position of node 64 (blade 3, node 7), m
        193    5.678E+00                                 F               0         X-component position of node 65 (blade 3, node 8), m
        194    3.593E+01                                 F               0         Y-component position of node 65 (blade 3, node 8), m
        195    1.401E+02                                 F               0         Z-component position of node 65 (blade 3, node 8), m
        196    5.475E+00                                 F               0         X-component position of node 66 (blade 3, node 9), m
        197    3.970E+01                                 F               0         Y-component position of node 66 (blade 3, node 9), m
        198    1.392E+02                                 F               0         Z-component position of node 66 (blade 3, node 9), m
        199    5.271E+00                                 F               0         X-component position of node 67 (blade 3, node 10), m
        200    4.346E+01                                 F               0         Y-component position of node 67 (blade 3, node 10), m
        201    1.383E+02                                 F               0         Z-component position of node 67 (blade 3, node 10), m
        202    5.068E+00                                 F               0         X-component position of node 68 (blade 3, node 11), m
        203    4.723E+01                                 F               0         Y-component position of node 68 (blade 3, node 11), m
        204    1.375E+02                                 F               0         Z-component position of node 68 (blade 3, node 11), m
        205    4.864E+00                                 F               0         X-component position of node 69 (blade 3, node 12), m
        206    5.100E+01                                 F               0         Y-component position of node 69 (blade 3, node 12), m
        207    1.366E+02                                 F               0         Z-component position of node 69 (blade 3, node 12), m
        208    4.661E+00                                 F               0         X-component position of node 70 (blade 3, node 13), m
        209    5.476E+01                                 F               0         Y-component position of node 70 (blade 3, node 13), m
        210    1.358E+02                                 F               0         Z-component position of node 70 (blade 3, node 13), m
        211    4.457E+00                                 F               0         X-component position of node 71 (blade 3, node 14), m