
Linearized model: Predictions were generated on 08-Jan-2024 at 09:43:14 using OpenFAST, compiled as a 64-bit application using single precision at commit v3.5.1
 linked with  NWTC Subroutine Library; ElastoDyn; InflowWind; AeroDyn; ServoDyn; HydroDyn; MoorDyn (v2.0.0, 2023-09-18)

Description from the FAST input file: CCT-9 Campign 4 model. Input files to be run with OpenFAST 3.5.0. GitHub branch from Lu Wang (https://github.com/luwang00/openfast/tree/dev) compiled on March 7, 2023.

Simulation information:
   Simulation time:                  1006.9750 s
   Rotor Speed:                         0.7078 rad/s
   Azimuth:                             4.1222 rad
   Wind Speed:                          8.0000 m/s
   Number of continuous states:         0
   Number of discrete states:           0
   Number of constraint states:         0
   Number of inputs:                   54
   Number of outputs:                   0
   Jacobians included in this file?    No

Order of inputs:
     Column   Operating Point                     Rotating Frame? Derivative Order Description
   ---------- ---------------                     --------------- ---------------- -----------
          1    4.427E+00                                 F               0         CoupledKinematics X translation displacement, node 1, m
          2    3.208E-01                                 F               0         CoupledKinematics Y translation displacement, node 1, m
          3   -4.770E+00                                 F               0         CoupledKinematics Z translation displacement, node 1, m
          4    4.383E+00                                 F               0         CoupledKinematics X translation displacement, node 2, m
          5    2.190E-01                                 F               0         CoupledKinematics Y translation displacement, node 2, m
          6   -1.988E-01                                 F               0         CoupledKinematics Z translation displacement, node 2, m
          7    4.718E+00                                 F               0         CoupledKinematics X translation displacement, node 3, m
          8   -9.624E-02                                 F               0         CoupledKinematics Y translation displacement, node 3, m
          9    4.956E+00                                 F               0         CoupledKinematics Z translation displacement, node 3, m
         10    9.965E-01,  4.121E-03, -8.374E-02         F               0         CoupledKinematics X orientation angle, node 1, rad
         11   -4.500E-04,  9.990E-01,  4.381E-02         F               0         CoupledKinematics Y orientation angle, node 1, rad
         12    8.384E-02, -4.362E-02,  9.955E-01         F               0         CoupledKinematics Z orientation angle, node 1, rad
         13    9.965E-01,  4.121E-03, -8.374E-02         F               0         CoupledKinematics X orientation angle, node 2, rad
         14   -4.500E-04,  9.990E-01,  4.381E-02         F               0         CoupledKinematics Y orientation angle, node 2, rad
         15    8.384E-02, -4.362E-02,  9.955E-01         F               0         CoupledKinematics Z orientation angle, node 2, rad
         16    9.965E-01,  4.121E-03, -8.374E-02         F               0         CoupledKinematics X orientation angle, node 3, rad
         17   -4.500E-04,  9.990E-01,  4.381E-02         F               0         CoupledKinematics Y orientation angle, node 3, rad
         18    8.384E-02, -4.362E-02,  9.955E-01         F               0         CoupledKinematics Z orientation angle, node 3, rad
         19   -4.608E-05                                 F               0         CoupledKinematics X translation velocity, node 1, m/s
         20   -6.086E-04                                 F               0         CoupledKinematics Y translation velocity, node 1, m/s
         21   -2.207E-03                                 F               0         CoupledKinematics Z translation velocity, node 1, m/s
         22   -2.824E-04                                 F               0         CoupledKinematics X translation velocity, node 2, m/s
         23   -6.494E-04                                 F               0         CoupledKinematics Y translation velocity, node 2, m/s
         24   -1.329E-03                                 F               0         CoupledKinematics Z translation velocity, node 2, m/s
         25   -1.648E-04                                 F               0         CoupledKinematics X translation velocity, node 3, m/s
         26   -8.952E-04                                 F               0         CoupledKinematics Y translation velocity, node 3, m/s
         27   -1.788E-03                                 F               0         CoupledKinematics Z translation velocity, node 3, m/s
         28    8.541E-06                                 F               0         CoupledKinematics X rotation velocity, node 1, rad/s
         29   -1.859E-07                                 F               0         CoupledKinematics Y rotation velocity, node 1, rad/s
         30    2.288E-06                                 F               0         CoupledKinematics Z rotation velocity, node 1, rad/s
         31    8.541E-06                                 F               0         CoupledKinematics X rotation velocity, node 2, rad/s
         32   -1.859E-07                                 F               0         CoupledKinematics Y rotation velocity, node 2, rad/s
         33    2.288E-06                                 F               0         CoupledKinematics Z rotation velocity, node 2, rad/s
         34    8.541E-06                                 F               0         CoupledKinematics X rotation velocity, node 3, rad/s
         35   -1.859E-07                                 F               0         CoupledKinematics Y rotation velocity, node 3, rad/s
         36    2.288E-06                                 F               0         CoupledKinematics Z rotation velocity, node 3, rad/s
         37    2.696E-05                                 F               0         CoupledKinematics X translation acceleration, node 1, m/s^2
         38   -1.018E-05                                 F               0         CoupledKinematics Y translation acceleration, node 1, m/s^2
         39    4.171E-04                                 F               0         CoupledKinematics Z translation acceleration, node 1, m/s^2
         40   -2.776E-05                                 F               0         CoupledKinematics X translation acceleration, node 2, m/s^2
         41   -3.430E-05                                 F               0         CoupledKinematics Y translation acceleration, node 2, m/s^2
         42    9.509E-04                                 F               0         CoupledKinematics Z translation acceleration, node 2, m/s^2
         43    1.904E-06                                 F               0         CoupledKinematics X translation acceleration, node 3, m/s^2
         44   -1.090E-04                                 F               0         CoupledKinematics Y translation acceleration, node 3, m/s^2
         45    7.072E-04                                 F               0         CoupledKinematics Z translation acceleration, node 3, m/s^2
         46    5.185E-06                                 F               0         CoupledKinematics X rotation acceleration, node 1, rad/s^2
         47    2.834E-07                                 F               0         CoupledKinematics Y rotation acceleration, node 1, rad/s^2
         48    5.444E-07                                 F               0         CoupledKinematics Z rotation acceleration, node 1, rad/s^2
         49    5.185E-06                                 F               0         CoupledKinematics X rotation acceleration, node 2, rad/s^2
         50    2.834E-07                                 F               0         CoupledKinematics Y rotation acceleration, node 2, rad/s^2
         51    5.444E-07                                 F               0         CoupledKinematics Z rotation acceleration, node 2, rad/s^2
         52    5.185E-06                                 F               0         CoupledKinematics X rotation acceleration, node 3, rad/s^2
         53    2.834E-07                                 F               0         CoupledKinematics Y rotation acceleration, node 3, rad/s^2
         54    5.444E-07                                 F               0         CoupledKinematics Z rotation acceleration, node 3, rad/s^2


Linearized state matrices:

