
Linearized model: Predictions were generated on 08-Jan-2024 at 09:43:14 using OpenFAST, compiled as a 64-bit application using single precision at commit v3.5.1
 linked with  NWTC Subroutine Library; ElastoDyn; InflowWind; AeroDyn; ServoDyn; HydroDyn; MoorDyn (v2.0.0, 2023-09-18)

Description from the FAST input file: CCT-9 Campign 4 model. Input files to be run with OpenFAST 3.5.0. GitHub branch from Lu Wang (https://github.com/luwang00/openfast/tree/dev) compiled on March 7, 2023.

Simulation information:
   Simulation time:                  1006.4750 s
   Rotor Speed:                         0.7078 rad/s
   Azimuth:                             3.7683 rad
   Wind Speed:                          8.0000 m/s
   Number of continuous states:        22
   Number of discrete states:           0
   Number of constraint states:         0
   Number of inputs:                 1890
   Number of outputs:                  38
   Jacobians included in this file?    No

Order of continuous states:
   Row/Column Operating Point                     Rotating Frame? Derivative Order Description
   ---------- ---------------                     --------------- ---------------- -----------
          1    5.713E+00                                 F               2         Platform horizontal surge translation DOF (internal DOF index = DOF_Sg), m
          2   -4.774E-01                                 F               2         Platform horizontal sway translation DOF (internal DOF index = DOF_Sw), m
          3   -8.163E-02                                 F               2         Platform vertical heave translation DOF (internal DOF index = DOF_Hv), m
          4    4.391E-02                                 F               2         Platform roll tilt rotation DOF (internal DOF index = DOF_R), rad
          5    8.416E-02                                 F               2         Platform pitch tilt rotation DOF (internal DOF index = DOF_P), rad
          6    2.295E-03                                 F               2         Platform yaw rotation DOF (internal DOF index = DOF_Y), rad
          7    4.619E-01                                 F               2         1st tower fore-aft bending mode DOF (internal DOF index = DOF_TFA1), m
          8    1.714E-01                                 F               2         1st tower side-to-side bending mode DOF (internal DOF index = DOF_TSS1), m
          9    1.460E-03                                 F               2         2nd tower fore-aft bending mode DOF (internal DOF index = DOF_TFA2), m
         10    7.516E-05                                 F               2         2nd tower side-to-side bending mode DOF (internal DOF index = DOF_TSS2), m
         11    2.197E+00                                 F               2         Variable speed generator DOF (internal DOF index = DOF_GeAz), rad
         12   -1.789E-04                                 F               2         First time derivative of Platform horizontal surge translation DOF (internal DOF index = DOF_Sg), m/s
         13   -7.565E-04                                 F               2         First time derivative of Platform horizontal sway translation DOF (internal DOF index = DOF_Sw), m/s
         14   -2.104E-03                                 F               2         First time derivative of Platform vertical heave translation DOF (internal DOF index = DOF_Hv), m/s
         15    4.668E-06                                 F               2         First time derivative of Platform roll tilt rotation DOF (internal DOF index = DOF_R), rad/s
         16   -9.873E-07                                 F               2         First time derivative of Platform pitch tilt rotation DOF (internal DOF index = DOF_P), rad/s
         17    2.101E-06                                 F               2         First time derivative of Platform yaw rotation DOF (internal DOF index = DOF_Y), rad/s
         18    4.097E-05                                 F               2         First time derivative of 1st tower fore-aft bending mode DOF (internal DOF index = DOF_TFA1), m/s
         19   -3.435E-04                                 F               2         First time derivative of 1st tower side-to-side bending mode DOF (internal DOF index = DOF_TSS1), m/s
         20    4.652E-07                                 F               2         First time derivative of 2nd tower fore-aft bending mode DOF (internal DOF index = DOF_TFA2), m/s
         21    3.861E-07                                 F               2         First time derivative of 2nd tower side-to-side bending mode DOF (internal DOF index = DOF_TSS2), m/s
         22    7.078E-01                                 F               2         First time derivative of Variable speed generator DOF (internal DOF index = DOF_GeAz), rad/s

Order of continuous state derivatives:
   Row/Column Operating Point                     Rotating Frame? Derivative Order Description
   ---------- ---------------                     --------------- ---------------- -----------
          1   -1.789E-04                                 F               2         First time derivative of Platform horizontal surge translation DOF (internal DOF index = DOF_Sg), m/s
          2   -7.565E-04                                 F               2         First time derivative of Platform horizontal sway translation DOF (internal DOF index = DOF_Sw), m/s
          3   -2.104E-03                                 F               2         First time derivative of Platform vertical heave translation DOF (internal DOF index = DOF_Hv), m/s
          4    4.668E-06                                 F               2         First time derivative of Platform roll tilt rotation DOF (internal DOF index = DOF_R), rad/s
          5   -9.873E-07                                 F               2         First time derivative of Platform pitch tilt rotation DOF (internal DOF index = DOF_P), rad/s
          6    2.101E-06                                 F               2         First time derivative of Platform yaw rotation DOF (internal DOF index = DOF_Y), rad/s
          7    4.097E-05                                 F               2         First time derivative of 1st tower fore-aft bending mode DOF (internal DOF index = DOF_TFA1), m/s
          8   -3.435E-04                                 F               2         First time derivative of 1st tower side-to-side bending mode DOF (internal DOF index = DOF_TSS1), m/s
          9    4.652E-07                                 F               2         First time derivative of 2nd tower fore-aft bending mode DOF (internal DOF index = DOF_TFA2), m/s
         10    3.861E-07                                 F               2         First time derivative of 2nd tower side-to-side bending mode DOF (internal DOF index = DOF_TSS2), m/s
         11    7.078E-01                                 F               2         First time derivative of Variable speed generator DOF (internal DOF index = DOF_GeAz), rad/s
         12    3.441E-05                                 F               2         First time derivative of First time derivative of Platform horizontal surge translation DOF (internal DOF index = DOF_Sg), m/s/s
         13   -1.927E-04                                 F               2         First time derivative of First time derivative of Platform horizontal sway translation DOF (internal DOF index = DOF_Sw), m/s/s
         14    6.079E-04                                 F               2         First time derivative of First time derivative of Platform vertical heave translation DOF (internal DOF index = DOF_Hv), m/s/s
         15    1.011E-05                                 F               2         First time derivative of First time derivative of Platform roll tilt rotation DOF (internal DOF index = DOF_R), rad/s/s
         16    2.058E-06                                 F               2         First time derivative of First time derivative of Platform pitch tilt rotation DOF (internal DOF index = DOF_P), rad/s/s
         17    8.021E-08                                 F               2         First time derivative of First time derivative of Platform yaw rotation DOF (internal DOF index = DOF_Y), rad/s/s
         18   -1.053E-03                                 F               2         First time derivative of First time derivative of 1st tower fore-aft bending mode DOF (internal DOF index = DOF_TFA1), m/s/s
         19   -1.038E-04                                 F               2         First time derivative of First time derivative of 1st tower side-to-side bending mode DOF (internal DOF index = DOF_TSS1), m/s/s
         20    2.678E-06                                 F               2         First time derivative of First time derivative of 2nd tower fore-aft bending mode DOF (internal DOF index = DOF_TFA2), m/s/s
         21    5.611E-07                                 F               2         First time derivative of First time derivative of 2nd tower side-to-side bending mode DOF (internal DOF index = DOF_TSS2), m/s/s
         22    5.533E-05                                 F               2         First time derivative of First time derivative of Variable speed generator DOF (internal DOF index = DOF_GeAz), rad/s/s

Order of inputs:
     Column   Operating Point                     Rotating Frame? Derivative Order Description
   ---------- ---------------                     --------------- ---------------- -----------
          1    4.038E+01                                 F               0         Blade 1 X force, node 1, N
          2   -2.744E+01                                 F               0         Blade 1 Y force, node 1, N
          3   -3.048E+01                                 F               0         Blade 1 Z force, node 1, N
          4    1.872E+02                                 F               0         Blade 1 X force, node 2, N
          5   -5.336E+01                                 F               0         Blade 1 Y force, node 2, N
          6   -8.141E+01                                 F               0         Blade 1 Z force, node 2, N
          7    2.618E+02                                 F               0         Blade 1 X force, node 3, N
          8   -2.194E+01                                 F               0         Blade 1 Y force, node 3, N
          9   -7.112E+01                                 F               0         Blade 1 Z force, node 3, N
         10    3.563E+02                                 F               0         Blade 1 X force, node 4, N
         11    3.308E+00                                 F               0         Blade 1 Y force, node 4, N
         12   -6.989E+01                                 F               0         Blade 1 Z force, node 4, N
         13    4.509E+02                                 F               0         Blade 1 X force, node 5, N
         14    2.856E+01                                 F               0         Blade 1 Y force, node 5, N
         15   -6.867E+01                                 F               0         Blade 1 Z force, node 5, N
         16    5.455E+02                                 F               0         Blade 1 X force, node 6, N
         17    5.381E+01                                 F               0         Blade 1 Y force, node 6, N
         18   -6.744E+01                                 F               0         Blade 1 Z force, node 6, N
         19    6.400E+02                                 F               0         Blade 1 X force, node 7, N
         20    7.907E+01                                 F               0         Blade 1 Y force, node 7, N
         21   -6.622E+01                                 F               0         Blade 1 Z force, node 7, N
         22    7.346E+02                                 F               0         Blade 1 X force, node 8, N
         23    1.043E+02                                 F               0         Blade 1 Y force, node 8, N
         24   -6.500E+01                                 F               0         Blade 1 Z force, node 8, N
         25    8.292E+02                                 F               0         Blade 1 X force, node 9, N
         26    1.296E+02                                 F               0         Blade 1 Y force, node 9, N
         27   -6.377E+01                                 F               0         Blade 1 Z force, node 9, N
         28    9.238E+02                                 F               0         Blade 1 X force, node 10, N
         29    1.548E+02                                 F               0         Blade 1 Y force, node 10, N
         30   -6.255E+01                                 F               0         Blade 1 Z force, node 10, N
         31    1.018E+03                                 F               0         Blade 1 X force, node 11, N
         32    1.801E+02                                 F               0         Blade 1 Y force, node 11, N
         33   -6.132E+01                                 F               0         Blade 1 Z force, node 11, N
         34    1.113E+03                                 F               0         Blade 1 X force, node 12, N
         35    2.053E+02                                 F               0         Blade 1 Y force, node 12, N
         36   -6.010E+01                                 F               0         Blade 1 Z force, node 12, N
         37    1.207E+03                                 F               0         Blade 1 X force, node 13, N
         38    2.306E+02                                 F               0         Blade 1 Y force, node 13, N
         39   -5.888E+01                                 F               0         Blade 1 Z force, node 13, N
         40    1.302E+03                                 F               0         Blade 1 X force, node 14, N
         41    2.558E+02                                 F               0         Blade 1 Y force, node 14, N
         42   -5.765E+01                                 F               0         Blade 1 Z force, node 14, N
         43    1.397E+03                                 F               0         Blade 1 X force, node 15, N
         44    2.811E+02                                 F               0         Blade 1 Y force, node 15, N
         45   -5.643E+01                                 F               0         Blade 1 Z force, node 15, N
         46    1.491E+03                                 F               0         Blade 1 X force, node 16, N
         47    3.063E+02                                 F               0         Blade 1 Y force, node 16, N
         48   -5.520E+01                                 F               0         Blade 1 Z force, node 16, N
         49    1.839E+03                                 F               0         Blade 1 X force, node 17, N
         50    3.831E+02                                 F               0         Blade 1 Y force, node 17, N
         51   -6.383E+01                                 F               0         Blade 1 Z force, node 17, N
         52    1.408E+03                                 F               0         Blade 1 X force, node 18, N
         53    2.834E+02                                 F               0         Blade 1 Y force, node 18, N
         54   -5.684E+01                                 F               0         Blade 1 Z force, node 18, N
         55    1.732E+03                                 F               0         Blade 1 X force, node 19, N
         56    3.324E+02                                 F               0         Blade 1 Y force, node 19, N
         57   -8.309E+01                                 F               0         Blade 1 Z force, node 19, N
         58    1.480E+03                                 F               0         Blade 1 X force, node 20, N
         59    2.713E+02                                 F               0         Blade 1 Y force, node 20, N
         60   -8.134E+01                                 F               0         Blade 1 Z force, node 20, N
         61    2.191E+03                                 F               0         Blade 1 X force, node 21, N
         62    3.808E+02                                 F               0         Blade 1 Y force, node 21, N
         63   -1.374E+02                                 F               0         Blade 1 Z force, node 21, N
         64    1.939E+03                                 F               0         Blade 1 X force, node 22, N
         65    3.194E+02                                 F               0         Blade 1 Y force, node 22, N
         66   -1.358E+02                                 F               0         Blade 1 Z force, node 22, N
         67    1.996E+03                                 F               0         Blade 1 X force, node 23, N
         68    3.131E+02                                 F               0         Blade 1 Y force, node 23, N
         69   -1.524E+02                                 F               0         Blade 1 Z force, node 23, N
         70    2.088E+03                                 F               0         Blade 1 X force, node 24, N
         71    3.122E+02                                 F               0         Blade 1 Y force, node 24, N
         72   -1.720E+02                                 F               0         Blade 1 Z force, node 24, N
         73    2.144E+03                                 F               0         Blade 1 X force, node 25, N
         74    3.057E+02                                 F               0         Blade 1 Y force, node 25, N
         75   -1.887E+02                                 F               0         Blade 1 Z force, node 25, N
         76    2.212E+03                                 F               0         Blade 1 X force, node 26, N
         77    3.009E+02                                 F               0         Blade 1 Y force, node 26, N
         78   -2.064E+02                                 F               0         Blade 1 Z force, node 26, N
         79    2.655E+03                                 F               0         Blade 1 X force, node 27, N
         80    3.440E+02                                 F               0         Blade 1 Y force, node 27, N
         81   -2.617E+02                                 F               0         Blade 1 Z force, node 27, N
         82    1.972E+03                                 F               0         Blade 1 X force, node 28, N
         83    2.436E+02                                 F               0         Blade 1 Y force, node 28, N
         84   -2.040E+02                                 F               0         Blade 1 Z force, node 28, N
         85    2.415E+03                                 F               0         Blade 1 X force, node 29, N
         86    2.866E+02                                 F               0         Blade 1 Y force, node 29, N
         87   -2.594E+02                                 F               0         Blade 1 Z force, node 29, N
         88    2.057E+03                                 F               0         Blade 1 X force, node 30, N
         89    2.347E+02                                 F               0         Blade 1 Y force, node 30, N
         90   -2.287E+02                                 F               0         Blade 1 Z force, node 30, N
         91    2.977E+03                                 F               0         Blade 1 X force, node 31, N
         92    3.241E+02                                 F               0         Blade 1 Y force, node 31, N
         93   -3.433E+02                                 F               0         Blade 1 Z force, node 31, N
         94    2.618E+03                                 F               0         Blade 1 X force, node 32, N
         95    2.721E+02                                 F               0         Blade 1 Y force, node 32, N
         96   -3.125E+02                                 F               0         Blade 1 Z force, node 32, N
         97    2.686E+03                                 F               0         Blade 1 X force, node 33, N
         98    2.672E+02                                 F               0         Blade 1 Y force, node 33, N
         99   -3.302E+02                                 F               0         Blade 1 Z force, node 33, N
        100    2.753E+03                                 F               0         Blade 1 X force, node 34, N
        101    2.624E+02                                 F               0         Blade 1 Y force, node 34, N
        102   -3.479E+02                                 F               0         Blade 1 Z force, node 34, N
        103    2.821E+03                                 F               0         Blade 1 X force, node 35, N
        104    2.576E+02                                 F               0         Blade 1 Y force, node 35, N
        105   -3.657E+02                                 F               0         Blade 1 Z force, node 35, N
        106    2.888E+03                                 F               0         Blade 1 X force, node 36, N
        107    2.527E+02                                 F               0         Blade 1 Y force, node 36, N
        108   -3.833E+02                                 F               0         Blade 1 Z force, node 36, N
        109    3.459E+03                                 F               0         Blade 1 X force, node 37, N
        110    2.891E+02                                 F               0         Blade 1 Y force, node 37, N
        111   -4.699E+02                                 F               0         Blade 1 Z force, node 37, N
        112    2.521E+03                                 F               0         Blade 1 X force, node 38, N
        113    2.016E+02                                 F               0         Blade 1 Y force, node 38, N
        114   -3.500E+02                                 F               0         Blade 1 Z force, node 38, N
        115    3.092E+03                                 F               0         Blade 1 X force, node 39, N
        116    2.382E+02                                 F               0         Blade 1 Y force, node 39, N
        117   -4.366E+02                                 F               0         Blade 1 Z force, node 39, N
        118    2.638E+03                                 F               0         Blade 1 X force, node 40, N
        119    1.958E+02                                 F               0         Blade 1 Y force, node 40, N
        120   -3.786E+02                                 F               0         Blade 1 Z force, node 40, N
        121    3.750E+03                                 F               0         Blade 1 X force, node 41, N
        122    2.662E+02                                 F               0         Blade 1 Y force, node 41, N
        123   -5.479E+02                                 F               0         Blade 1 Z force, node 41, N
        124    3.296E+03                                 F               0         Blade 1 X force, node 42, N
        125    2.237E+02                                 F               0         Blade 1 Y force, node 42, N
        126   -4.898E+02                                 F               0         Blade 1 Z force, node 42, N
        127    3.363E+03                                 F               0         Blade 1 X force, node 43, N
        128    2.188E+02                                 F               0         Blade 1 Y force, node 43, N
        129   -5.075E+02                                 F               0         Blade 1 Z force, node 43, N
        130    3.448E+03                                 F               0         Blade 1 X force, node 44, N
        131    2.150E+02                                 F               0         Blade 1 Y force, node 44, N
        132   -5.279E+02                                 F               0         Blade 1 Z force, node 44, N
        133    3.479E+03                                 F               0         Blade 1 X force, node 45, N
        134    2.078E+02                                 F               0         Blade 1 Y force, node 45, N
        135   -5.400E+02                                 F               0         Blade 1 Z force, node 45, N
        136    3.565E+03                                 F               0         Blade 1 X force, node 46, N
        137    2.041E+02                                 F               0         Blade 1 Y force, node 46, N
        138   -5.605E+02                                 F               0         Blade 1 Z force, node 46, N
        139    4.270E+03                                 F               0         Blade 1 X force, node 47, N
        140    2.335E+02                                 F               0         Blade 1 Y force, node 47, N
        141   -6.802E+02                                 F               0         Blade 1 Z force, node 47, N
        142    3.062E+03                                 F               0         Blade 1 X force, node 48, N
        143    1.600E+02                                 F               0         Blade 1 Y force, node 48, N
        144   -4.939E+02                                 F               0         Blade 1 Z force, node 48, N
        145    3.766E+03                                 F               0         Blade 1 X force, node 49, N
        146    1.894E+02                                 F               0         Blade 1 Y force, node 49, N
        147   -6.135E+02                                 F               0         Blade 1 Z force, node 49, N
        148    3.224E+03                                 F               0         Blade 1 X force, node 50, N
        149    1.559E+02                                 F               0         Blade 1 Y force, node 50, N
        150   -5.302E+02                                 F               0         Blade 1 Z force, node 50, N
        151    4.511E+03                                 F               0         Blade 1 X force, node 51, N
        152    2.082E+02                                 F               0         Blade 1 Y force, node 51, N
        153   -7.498E+02                                 F               0         Blade 1 Z force, node 51, N
        154    3.969E+03                                 F               0         Blade 1 X force, node 52, N
        155    1.748E+02                                 F               0         Blade 1 Y force, node 52, N
        156   -6.666E+02                                 F               0         Blade 1 Z force, node 52, N
        157    4.038E+03                                 F               0         Blade 1 X force, node 53, N
        158    1.700E+02                                 F               0         Blade 1 Y force, node 53, N
        159   -6.844E+02                                 F               0         Blade 1 Z force, node 53, N
        160    4.151E+03                                 F               0         Blade 1 X force, node 54, N
        161    1.670E+02                                 F               0         Blade 1 Y force, node 54, N
        162   -7.100E+02                                 F               0         Blade 1 Z force, node 54, N
        163    4.128E+03                                 F               0         Blade 1 X force, node 55, N
        164    1.586E+02                                 F               0         Blade 1 Y force, node 55, N
        165   -7.122E+02                                 F               0         Blade 1 Z force, node 55, N
        166    4.242E+03                                 F               0         Blade 1 X force, node 56, N
        167    1.556E+02                                 F               0         Blade 1 Y force, node 56, N
        168   -7.377E+02                                 F               0         Blade 1 Z force, node 56, N
        169    5.089E+03                                 F               0         Blade 1 X force, node 57, N
        170    1.774E+02                                 F               0         Blade 1 Y force, node 57, N
        171   -8.926E+02                                 F               0         Blade 1 Z force, node 57, N
        172    3.597E+03                                 F               0         Blade 1 X force, node 58, N
        173    1.192E+02                                 F               0         Blade 1 Y force, node 58, N
        174   -6.360E+02                                 F               0         Blade 1 Z force, node 58, N
        175    4.445E+03                                 F               0         Blade 1 X force, node 59, N
        176    1.411E+02                                 F               0         Blade 1 Y force, node 59, N
        177   -7.910E+02                                 F               0         Blade 1 Z force, node 59, N
        178    3.822E+03                                 F               0         Blade 1 X force, node 60, N
        179    1.160E+02                                 F               0         Blade 1 Y force, node 60, N
        180   -6.845E+02                                 F               0         Blade 1 Z force, node 60, N
        181    5.272E+03                                 F               0         Blade 1 X force, node 61, N
        182    1.517E+02                                 F               0         Blade 1 Y force, node 61, N
        183   -9.508E+02                                 F               0         Blade 1 Z force, node 61, N
        184    4.648E+03                                 F               0         Blade 1 X force, node 62, N