
Linearized model: Predictions were generated on 13-Feb-2024 at 11:29:37 using OpenFAST, compiled as a 64-bit application using single precision at commit v3.5.1
 linked with  NWTC Subroutine Library; ElastoDyn; InflowWind; AeroDyn; ServoDyn; HydroDyn; MAP++ (<1.20.10>, <Oct-20-2023>)

Description from the FAST input file: CCT-9 Campign 4 model. Input files to be run with OpenFAST 3.5.0. GitHub branch from Lu Wang (https://github.com/luwang00/openfast/tree/dev) compiled on March 7, 2023.

Simulation information:
   Simulation time:                  1216.5750 s
   Rotor Speed:                         0.7918 rad/s
   Azimuth:                             4.5521 rad
   Wind Speed:                         16.0000 m/s
   Number of continuous states:        14
   Number of discrete states:           0
   Number of constraint states:         0
   Number of inputs:                 1890
   Number of outputs:                  25
   Jacobians included in this file?    No

Order of continuous states:
   Row/Column Operating Point                                                   Rotating Frame? Derivative Order Description
   ---------- ---------------                                                   --------------- ---------------- -----------
          1     8.64544677734E+000                                                     F               2         Platform horizontal surge translation DOF (internal DOF index = DOF_Sg), m
          2    -6.19002878666E-001                                                     F               2         Platform horizontal sway translation DOF (internal DOF index = DOF_Sw), m
          3    -1.45634010434E-001                                                     F               2         Platform vertical heave translation DOF (internal DOF index = DOF_Hv), m
          4     5.17510436475E-002                                                     F               2         Platform roll tilt rotation DOF (internal DOF index = DOF_R), rad
          5     1.13031238317E-001                                                     F               2         Platform pitch tilt rotation DOF (internal DOF index = DOF_P), rad
          6     5.16754109412E-004                                                     F               2         Platform yaw rotation DOF (internal DOF index = DOF_Y), rad
          7     2.98130488396E+000                                                     F               2         Variable speed generator DOF (internal DOF index = DOF_GeAz), rad
          8    -5.77819228056E-005                                                     F               2         First time derivative of Platform horizontal surge translation DOF (internal DOF index = DOF_Sg), m/s
          9    -6.22538384050E-004                                                     F               2         First time derivative of Platform horizontal sway translation DOF (internal DOF index = DOF_Sw), m/s
         10    -7.09762657061E-003                                                     F               2         First time derivative of Platform vertical heave translation DOF (internal DOF index = DOF_Hv), m/s
         11     6.91100794938E-005                                                     F               2         First time derivative of Platform roll tilt rotation DOF (internal DOF index = DOF_R), rad/s
         12    -2.79773553302E-006                                                     F               2         First time derivative of Platform pitch tilt rotation DOF (internal DOF index = DOF_P), rad/s
         13    -7.00729560776E-006                                                     F               2         First time derivative of Platform yaw rotation DOF (internal DOF index = DOF_Y), rad/s
         14     7.91836142540E-001                                                     F               2         First time derivative of Variable speed generator DOF (internal DOF index = DOF_GeAz), rad/s

Order of continuous state derivatives:
   Row/Column Operating Point                                                   Rotating Frame? Derivative Order Description
   ---------- ---------------                                                   --------------- ---------------- -----------
          1    -5.77819228056E-005                                                     F               2         First time derivative of Platform horizontal surge translation DOF (internal DOF index = DOF_Sg), m/s
          2    -6.22538384050E-004                                                     F               2         First time derivative of Platform horizontal sway translation DOF (internal DOF index = DOF_Sw), m/s
          3    -7.09762657061E-003                                                     F               2         First time derivative of Platform vertical heave translation DOF (internal DOF index = DOF_Hv), m/s
          4     6.91100794938E-005                                                     F               2         First time derivative of Platform roll tilt rotation DOF (internal DOF index = DOF_R), rad/s
          5    -2.79773553302E-006                                                     F               2         First time derivative of Platform pitch tilt rotation DOF (internal DOF index = DOF_P), rad/s
          6    -7.00729560776E-006                                                     F               2         First time derivative of Platform yaw rotation DOF (internal DOF index = DOF_Y), rad/s
          7     7.91836142540E-001                                                     F               2         First time derivative of Variable speed generator DOF (internal DOF index = DOF_GeAz), rad/s
          8    -1.59686969710E-004                                                     F               2         First time derivative of First time derivative of Platform horizontal surge translation DOF (internal DOF index = DOF_Sg), m/s/s
          9    -2.89525250992E-005                                                     F               2         First time derivative of First time derivative of Platform horizontal sway translation DOF (internal DOF index = DOF_Sw), m/s/s
         10    -1.01240421645E-003                                                     F               2         First time derivative of First time derivative of Platform vertical heave translation DOF (internal DOF index = DOF_Hv), m/s/s
         11     9.99362782750E-006                                                     F               2         First time derivative of First time derivative of Platform roll tilt rotation DOF (internal DOF index = DOF_R), rad/s/s
         12    -9.20878392208E-006                                                     F               2         First time derivative of First time derivative of Platform pitch tilt rotation DOF (internal DOF index = DOF_P), rad/s/s
         13     1.46214342749E-005                                                     F               2         First time derivative of First time derivative of Platform yaw rotation DOF (internal DOF index = DOF_Y), rad/s/s
         14    -1.70305327629E-004                                                     F               2         First time derivative of First time derivative of Variable speed generator DOF (internal DOF index = DOF_GeAz), rad/s/s

Order of inputs:
     Column   Operating Point                                                   Rotating Frame? Derivative Order Description
   ---------- ---------------                                                   --------------- ---------------- -----------
          1     1.54750183105E+002                                                     F               0         Blade 1 X force, node 1, N
          2    -1.03180313110E+000                                                     F               0         Blade 1 Y force, node 1, N
          3    -5.70265426636E+001                                                     F               0         Blade 1 Z force, node 1, N
          4     6.28172058105E+002                                                     F               0         Blade 1 X force, node 2, N
          5     1.79003477097E+000                                                     F               0         Blade 1 Y force, node 2, N
          6    -1.74848434448E+002                                                     F               0         Blade 1 Z force, node 2, N
          7     7.47633178711E+002                                                     F               0         Blade 1 X force, node 3, N
          8     1.38693094254E+001                                                     F               0         Blade 1 Y force, node 3, N
          9    -9.68896331787E+001                                                     F               0         Blade 1 Z force, node 3, N
         10     9.32984375000E+002                                                     F               0         Blade 1 X force, node 4, N
         11     2.62698955536E+001                                                     F               0         Blade 1 Y force, node 4, N
         12    -3.60057907104E+001                                                     F               0         Blade 1 Z force, node 4, N
         13     1.11834387207E+003                                                     F               0         Blade 1 X force, node 5, N
         14     3.86707839966E+001                                                     F               0         Blade 1 Y force, node 5, N
         15     2.48784790039E+001                                                     F               0         Blade 1 Z force, node 5, N
         16     1.30369689941E+003                                                     F               0         Blade 1 X force, node 6, N
         17     5.10715026855E+001                                                     F               0         Blade 1 Y force, node 6, N
         18     8.57629776001E+001                                                     F               0         Blade 1 Z force, node 6, N
         19     1.48904040527E+003                                                     F               0         Blade 1 X force, node 7, N
         20     6.34717979431E+001                                                     F               0         Blade 1 Y force, node 7, N
         21     1.46646514893E+002                                                     F               0         Blade 1 Z force, node 7, N
         22     1.67439160156E+003                                                     F               0         Blade 1 X force, node 8, N
         23     7.58723831177E+001                                                     F               0         Blade 1 Y force, node 8, N
         24     2.07530349731E+002                                                     F               0         Blade 1 Z force, node 8, N
         25     1.85974267578E+003                                                     F               0         Blade 1 X force, node 9, N
         26     8.82729721069E+001                                                     F               0         Blade 1 Y force, node 9, N
         27     2.68414215088E+002                                                     F               0         Blade 1 Z force, node 9, N
         28     2.04509387207E+003                                                     F               0         Blade 1 X force, node 10, N
         29     1.00673545837E+002                                                     F               0         Blade 1 Y force, node 10, N
         30     3.29298004150E+002                                                     F               0         Blade 1 Z force, node 10, N
         31     2.23044506836E+003                                                     F               0         Blade 1 X force, node 11, N
         32     1.13074134827E+002                                                     F               0         Blade 1 Y force, node 11, N
         33     3.90181915283E+002                                                     F               0         Blade 1 Z force, node 11, N
         34     2.41581323242E+003                                                     F               0         Blade 1 X force, node 12, N
         35     1.25475601196E+002                                                     F               0         Blade 1 Y force, node 12, N
         36     4.51069000244E+002                                                     F               0         Blade 1 Z force, node 12, N
         37     2.60116625977E+003                                                     F               0         Blade 1 X force, node 13, N
         38     1.37876312256E+002                                                     F               0         Blade 1 Y force, node 13, N
         39     5.11953460693E+002                                                     F               0         Blade 1 Z force, node 13, N
         40     2.78650146484E+003                                                     F               0         Blade 1 X force, node 14, N
         41     1.50276046753E+002                                                     F               0         Blade 1 Y force, node 14, N
         42     5.72834228516E+002                                                     F               0         Blade 1 Z force, node 14, N
         43     2.97187207031E+003                                                     F               0         Blade 1 X force, node 15, N
         44     1.62677734375E+002                                                     F               0         Blade 1 Y force, node 15, N
         45     6.33722290039E+002                                                     F               0         Blade 1 Z force, node 15, N
         46     3.15720288086E+003                                                     F               0         Blade 1 X force, node 16, N
         47     1.75077163696E+002                                                     F               0         Blade 1 Y force, node 16, N
         48     6.94601684570E+002                                                     F               0         Blade 1 Z force, node 16, N
         49     3.87273999023E+003                                                     F               0         Blade 1 X force, node 17, N
         50     2.17103302002E+002                                                     F               0         Blade 1 Y force, node 17, N
         51     8.74261169434E+002                                                     F               0         Blade 1 Z force, node 17, N
         52     2.92981567383E+003                                                     F               0         Blade 1 X force, node 18, N
         53     1.64075683594E+002                                                     F               0         Blade 1 Y force, node 18, N
         54     6.59807800293E+002                                                     F               0         Blade 1 Z force, node 18, N
         55     3.55966210938E+003                                                     F               0         Blade 1 X force, node 19, N
         56     1.98304244995E+002                                                     F               0         Blade 1 Y force, node 19, N
         57     7.91760131836E+002                                                     F               0         Blade 1 Z force, node 19, N
         58     3.00689746094E+003                                                     F               0         Blade 1 X force, node 20, N
         59     1.66680068970E+002                                                     F               0         Blade 1 Y force, node 20, N
         60     6.60944519043E+002                                                     F               0         Blade 1 Z force, node 20, N
         61     4.56642773438E+003                                                     F               0         Blade 1 X force, node 21, N
         62     2.53906616211E+002                                                     F               0         Blade 1 Y force, node 21, N
         63     1.01111248779E+003                                                     F               0         Blade 1 Z force, node 21, N
         64     4.41693945312E+003                                                     F               0         Blade 1 X force, node 22, N
         65     2.49696975708E+002                                                     F               0         Blade 1 Y force, node 22, N
         66     1.01687689209E+003                                                     F               0         Blade 1 Z force, node 22, N
         67     4.90628076172E+003                                                     F               0         Blade 1 X force, node 23, N
         68     2.80984039307E+002                                                     F               0         Blade 1 Y force, node 23, N
         69     1.16386425781E+003                                                     F               0         Blade 1 Z force, node 23, N
         70     5.42539062500E+003                                                     F               0         Blade 1 X force, node 24, N
         71     3.12442230225E+002                                                     F               0         Blade 1 Y force, node 24, N
         72     1.30338366699E+003                                                     F               0         Blade 1 Z force, node 24, N
         73     5.61073144531E+003                                                     F               0         Blade 1 X force, node 25, N
         74     3.18675689697E+002                                                     F               0         Blade 1 Y force, node 25, N
         75     1.30584533691E+003                                                     F               0         Blade 1 Z force, node 25, N
         76     5.76849560547E+003                                                     F               0         Blade 1 X force, node 26, N
         77     3.21876861572E+002                                                     F               0         Blade 1 Y force, node 26, N
         78     1.28799987793E+003                                                     F               0         Blade 1 Z force, node 26, N
         79     6.89750000000E+003                                                     F               0         Blade 1 X force, node 27, N
         80     3.77896270752E+002                                                     F               0         Blade 1 Y force, node 27, N
         81     1.47397937012E+003                                                     F               0         Blade 1 Z force, node 27, N
         82     5.07572167969E+003                                                     F               0         Blade 1 X force, node 28, N
         83     2.72790191650E+002                                                     F               0         Blade 1 Y force, node 28, N
         84     1.03450122070E+003                                                     F               0         Blade 1 Z force, node 28, N
         85     6.15722216797E+003                                                     F               0         Blade 1 X force, node 29, N
         86     3.25382202148E+002                                                     F               0         Blade 1 Y force, node 29, N
         87     1.20251452637E+003                                                     F               0         Blade 1 Z force, node 29, N
         88     5.19636328125E+003                                                     F               0         Blade 1 X force, node 30, N
         89     2.70099700928E+002                                                     F               0         Blade 1 Y force, node 30, N
         90     9.72175354004E+002                                                     F               0         Blade 1 Z force, node 30, N
         91     7.43544531250E+003                                                     F               0         Blade 1 X force, node 31, N
         92     3.79006530762E+002                                                     F               0         Blade 1 Y force, node 31, N
         93     1.32024023438E+003                                                     F               0         Blade 1 Z force, node 31, N
         94     6.46417041016E+003                                                     F               0         Blade 1 X force, node 32, N
         95     3.22924804688E+002                                                     F               0         Blade 1 Y force, node 32, N
         96     1.08551000977E+003                                                     F               0         Blade 1 Z force, node 32, N
         97     6.55945556641E+003                                                     F               0         Blade 1 X force, node 33, N
         98     3.21592254639E+002                                                     F               0         Blade 1 Y force, node 33, N
         99     1.04379138184E+003                                                     F               0         Blade 1 Z force, node 33, N
        100     6.65537646484E+003                                                     F               0         Blade 1 X force, node 34, N
        101     3.20224151611E+002                                                     F               0         Blade 1 Y force, node 34, N
        102     1.00154193115E+003                                                     F               0         Blade 1 Z force, node 34, N
        103     6.74709814453E+003                                                     F               0         Blade 1 X force, node 35, N
        104     3.18384246826E+002                                                     F               0         Blade 1 Y force, node 35, N
        105     9.56104553223E+002                                                     F               0         Blade 1 Z force, node 35, N
        106     6.83597509766E+003                                                     F               0         Blade 1 X force, node 36, N
        107     3.16341583252E+002                                                     F               0         Blade 1 Y force, node 36, N
        108     9.09614929199E+002                                                     F               0         Blade 1 Z force, node 36, N
        109     8.09660888672E+003                                                     F               0         Blade 1 X force, node 37, N
        110     3.67031158447E+002                                                     F               0         Blade 1 Y force, node 37, N
        111     1.00490844727E+003                                                     F               0         Blade 1 Z force, node 37, N
        112     5.82794726562E+003                                                     F               0         Blade 1 X force, node 38, N
        113     2.58920654297E+002                                                     F               0         Blade 1 Y force, node 38, N
        114     6.73419860840E+002                                                     F               0         Blade 1 Z force, node 38, N
        115     7.06668261719E+003                                                     F               0         Blade 1 X force, node 39, N
        116     3.08651550293E+002                                                     F               0         Blade 1 Y force, node 39, N
        117     7.66318298340E+002                                                     F               0         Blade 1 Z force, node 39, N
        118     5.96299511719E+003                                                     F               0         Blade 1 X force, node 40, N
        119     2.56028533936E+002                                                     F               0         Blade 1 Y force, node 40, N
        120     6.04785522461E+002                                                     F               0         Blade 1 Z force, node 40, N
        121     8.36201171875E+003                                                     F               0         Blade 1 X force, node 41, N
        122     3.52011260986E+002                                                     F               0         Blade 1 Y force, node 41, N
        123     7.81576721191E+002                                                     F               0         Blade 1 Z force, node 41, N
        124     7.23917382812E+003                                                     F               0         Blade 1 X force, node 42, N
        125     2.98885894775E+002                                                     F               0         Blade 1 Y force, node 42, N
        126     6.21132995605E+002                                                     F               0         Blade 1 Z force, node 42, N
        127     7.28526220703E+003                                                     F               0         Blade 1 X force, node 43, N
        128     2.95330169678E+002                                                     F               0         Blade 1 Y force, node 43, N
        129     5.73374450684E+002                                                     F               0         Blade 1 Z force, node 43, N
        130     7.36494775391E+003                                                     F               0         Blade 1 X force, node 44, N
        131     2.93168548584E+002                                                     F               0         Blade 1 Y force, node 44, N
        132     5.28564453125E+002                                                     F               0         Blade 1 Z force, node 44, N
        133     7.30808593750E+003                                                     F               0         Blade 1 X force, node 45, N
        134     2.85871154785E+002                                                     F               0         Blade 1 Y force, node 45, N
        135     4.76793487549E+002                                                     F               0         Blade 1 Z force, node 45, N
        136     7.36175781250E+003                                                     F               0         Blade 1 X force, node 46, N
        137     2.83016296387E+002                                                     F               0         Blade 1 Y force, node 46, N
        138     4.33359436035E+002                                                     F               0         Blade 1 Z force, node 46, N
        139     8.66087109375E+003                                                     F               0         Blade 1 X force, node 47, N
        140     3.26776733398E+002                                                     F               0         Blade 1 Y force, node 47, N
        141     4.51259155273E+002                                                     F               0         Blade 1 Z force, node 47, N
        142     6.09897753906E+003                                                     F               0         Blade 1 X force, node 48, N
        143     2.26068176270E+002                                                     F               0         Blade 1 Y force, node 48, N
        144     2.79429992676E+002                                                     F               0         Blade 1 Z force, node 48, N
        145     7.38608251953E+003                                                     F               0         Blade 1 X force, node 49, N
        146     2.69770263672E+002                                                     F               0         Blade 1 Y force, node 49, N
        147     3.00443634033E+002                                                     F               0         Blade 1 Z force, node 49, N
        148     6.22451562500E+003                                                     F               0         Blade 1 X force, node 50, N
        149     2.23928619385E+002                                                     F               0         Blade 1 Y force, node 50, N
        150     2.20828262329E+002                                                     F               0         Blade 1 Z force, node 50, N
        151     8.54805664062E+003                                                     F               0         Blade 1 X force, node 51, N
        152     3.02177337646E+002                                                     F               0         Blade 1 Y force, node 51, N
        153     2.52659408569E+002                                                     F               0         Blade 1 Z force, node 51, N
        154     7.36906884766E+003                                                     F               0         Blade 1 X force, node 52, N
        155     2.56060638428E+002                                                     F               0         Blade 1 Y force, node 52, N
        156     1.75758071899E+002                                                     F               0         Blade 1 Z force, node 52, N
        157     7.35284326172E+003                                                     F               0         Blade 1 X force, node 53, N
        158     2.51321197510E+002                                                     F               0         Blade 1 Y force, node 53, N