
Linearized model: Predictions were generated on 31-Jan-2024 at 12:35:17 using OpenFAST, compiled as a 64-bit application using single precision at commit v3.5.1
 linked with  NWTC Subroutine Library; ElastoDyn; InflowWind; AeroDyn; ServoDyn; HydroDyn; MAP++ (<1.20.10>, <Oct-20-2023>)

Description from the FAST input file: CCT-9 Campign 4 model. Input files to be run with OpenFAST 3.5.0. GitHub branch from Lu Wang (https://github.com/luwang00/openfast/tree/dev) compiled on March 7, 2023.

Simulation information:
   Simulation time:                   500.7500 s
   Rotor Speed:                         0.8935 rad/s
   Azimuth:                             1.4164 rad
   Wind Speed:                         10.0000 m/s
   Number of continuous states:        12
   Number of discrete states:           0
   Number of constraint states:         0
   Number of inputs:                 3988
   Number of outputs:                  36
   Jacobians included in this file?    No

Order of continuous states:
   Row/Column Operating Point                     Rotating Frame? Derivative Order Description
   ---------- ---------------                     --------------- ---------------- -----------
          1    8.173E+00                                 F               2         ED Platform horizontal surge translation DOF (internal DOF index = DOF_Sg), m
          2   -5.039E-02                                 F               2         ED Platform vertical heave translation DOF (internal DOF index = DOF_Hv), m
          3    7.092E-03                                 F               2         ED Platform yaw rotation DOF (internal DOF index = DOF_Y), rad
          4    3.856E-01                                 F               2         ED 1st tower fore-aft bending mode DOF (internal DOF index = DOF_TFA1), m
          5    1.284E-03                                 F               2         ED 2nd tower fore-aft bending mode DOF (internal DOF index = DOF_TFA2), m
          6    6.129E+00                                 F               2         ED Variable speed generator DOF (internal DOF index = DOF_GeAz), rad
          7   -7.773E-05                                 F               2         ED First time derivative of Platform horizontal surge translation DOF (internal DOF index = DOF_Sg), m/s
          8   -6.855E-04                                 F               2         ED First time derivative of Platform vertical heave translation DOF (internal DOF index = DOF_Hv), m/s
          9   -1.830E-06                                 F               2         ED First time derivative of Platform yaw rotation DOF (internal DOF index = DOF_Y), rad/s
         10   -1.931E-04                                 F               2         ED First time derivative of 1st tower fore-aft bending mode DOF (internal DOF index = DOF_TFA1), m/s
         11   -6.037E-07                                 F               2         ED First time derivative of 2nd tower fore-aft bending mode DOF (internal DOF index = DOF_TFA2), m/s
         12    8.935E-01                                 F               2         ED First time derivative of Variable speed generator DOF (internal DOF index = DOF_GeAz), rad/s

Order of continuous state derivatives:
   Row/Column Operating Point                     Rotating Frame? Derivative Order Description
   ---------- ---------------                     --------------- ---------------- -----------
          1   -7.773E-05                                 F               2         First time derivative of ED Platform horizontal surge translation DOF (internal DOF index = DOF_Sg), m/s
          2   -6.855E-04                                 F               2         First time derivative of ED Platform vertical heave translation DOF (internal DOF index = DOF_Hv), m/s
          3   -1.830E-06                                 F               2         First time derivative of ED Platform yaw rotation DOF (internal DOF index = DOF_Y), rad/s
          4   -1.931E-04                                 F               2         First time derivative of ED 1st tower fore-aft bending mode DOF (internal DOF index = DOF_TFA1), m/s
          5   -6.037E-07                                 F               2         First time derivative of ED 2nd tower fore-aft bending mode DOF (internal DOF index = DOF_TFA2), m/s
          6    8.935E-01                                 F               2         First time derivative of ED Variable speed generator DOF (internal DOF index = DOF_GeAz), rad/s
          7   -3.528E-04                                 F               2         First time derivative of ED First time derivative of Platform horizontal surge translation DOF (internal DOF index = DOF_Sg), m/s/s
          8   -2.288E-03                                 F               2         First time derivative of ED First time derivative of Platform vertical heave translation DOF (internal DOF index = DOF_Hv), m/s/s
          9    9.264E-07                                 F               2         First time derivative of ED First time derivative of Platform yaw rotation DOF (internal DOF index = DOF_Y), rad/s/s
         10   -5.231E-04                                 F               2         First time derivative of ED First time derivative of 1st tower fore-aft bending mode DOF (internal DOF index = DOF_TFA1), m/s/s
         11    2.903E-06                                 F               2         First time derivative of ED First time derivative of 2nd tower fore-aft bending mode DOF (internal DOF index = DOF_TFA2), m/s/s
         12    9.213E-05                                 F               2         First time derivative of ED First time derivative of Variable speed generator DOF (internal DOF index = DOF_GeAz), rad/s/s

Order of inputs:
     Column   Operating Point                     Rotating Frame? Derivative Order Description
   ---------- ---------------                     --------------- ---------------- -----------
          1   -1.080E+01                                 F               0         IfW X-component position of node 1 (hub), m
          2    0.000E+00                                 F               0         IfW Y-component position of node 1 (hub), m
          3    1.497E+02                                 F               0         IfW Z-component position of node 1 (hub), m
          4    7.444E-01                                 F               0         IfW X-component position of node 2 (blade 1, node 1), m
          5   -1.260E+01                                 F               0         IfW Y-component position of node 2 (blade 1, node 1), m
          6    1.504E+02                                 F               0         IfW Z-component position of node 2 (blade 1, node 1), m
          7    7.794E-01                                 F               0         IfW X-component position of node 3 (blade 1, node 2), m
          8   -1.393E+01                                 F               0         IfW Y-component position of node 3 (blade 1, node 2), m
          9    1.505E+02                                 F               0         IfW Z-component position of node 3 (blade 1, node 2), m
         10    1.255E+00                                 F               0         IfW X-component position of node 4 (blade 1, node 3), m
         11   -3.197E+01                                 F               0         IfW Y-component position of node 4 (blade 1, node 3), m
         12    1.525E+02                                 F               0         IfW Z-component position of node 4 (blade 1, node 3), m
         13    1.356E+00                                 F               0         IfW X-component position of node 5 (blade 1, node 4), m
         14   -3.581E+01                                 F               0         IfW Y-component position of node 5 (blade 1, node 4), m
         15    1.529E+02                                 F               0         IfW Z-component position of node 5 (blade 1, node 4), m
         16    1.458E+00                                 F               0         IfW X-component position of node 6 (blade 1, node 5), m
         17   -3.965E+01                                 F               0         IfW Y-component position of node 6 (blade 1, node 5), m
         18    1.534E+02                                 F               0         IfW Z-component position of node 6 (blade 1, node 5), m
         19    1.559E+00                                 F               0         IfW X-component position of node 7 (blade 1, node 6), m
         20   -4.350E+01                                 F               0         IfW Y-component position of node 7 (blade 1, node 6), m
         21    1.538E+02                                 F               0         IfW Z-component position of node 7 (blade 1, node 6), m
         22    1.660E+00                                 F               0         IfW X-component position of node 8 (blade 1, node 7), m
         23   -4.734E+01                                 F               0         IfW Y-component position of node 8 (blade 1, node 7), m
         24    1.542E+02                                 F               0         IfW Z-component position of node 8 (blade 1, node 7), m
         25    1.762E+00                                 F               0         IfW X-component position of node 9 (blade 1, node 8), m
         26   -5.118E+01                                 F               0         IfW Y-component position of node 9 (blade 1, node 8), m
         27    1.546E+02                                 F               0         IfW Z-component position of node 9 (blade 1, node 8), m
         28    1.863E+00                                 F               0         IfW X-component position of node 10 (blade 1, node 9), m
         29   -5.503E+01                                 F               0         IfW Y-component position of node 10 (blade 1, node 9), m
         30    1.550E+02                                 F               0         IfW Z-component position of node 10 (blade 1, node 9), m
         31    1.964E+00                                 F               0         IfW X-component position of node 11 (blade 1, node 10), m
         32   -5.887E+01                                 F               0         IfW Y-component position of node 11 (blade 1, node 10), m
         33    1.555E+02                                 F               0         IfW Z-component position of node 11 (blade 1, node 10), m
         34    2.066E+00                                 F               0         IfW X-component position of node 12 (blade 1, node 11), m
         35   -6.271E+01                                 F               0         IfW Y-component position of node 12 (blade 1, node 11), m
         36    1.559E+02                                 F               0         IfW Z-component position of node 12 (blade 1, node 11), m
         37    2.167E+00                                 F               0         IfW X-component position of node 13 (blade 1, node 12), m
         38   -6.656E+01                                 F               0         IfW Y-component position of node 13 (blade 1, node 12), m
         39    1.563E+02                                 F               0         IfW Z-component position of node 13 (blade 1, node 12), m
         40    2.268E+00                                 F               0         IfW X-component position of node 14 (blade 1, node 13), m
         41   -7.040E+01                                 F               0         IfW Y-component position of node 14 (blade 1, node 13), m
         42    1.567E+02                                 F               0         IfW Z-component position of node 14 (blade 1, node 13), m
         43    2.369E+00                                 F               0         IfW X-component position of node 15 (blade 1, node 14), m
         44   -7.424E+01                                 F               0         IfW Y-component position of node 15 (blade 1, node 14), m
         45    1.572E+02                                 F               0         IfW Z-component position of node 15 (blade 1, node 14), m
         46    2.471E+00                                 F               0         IfW X-component position of node 16 (blade 1, node 15), m
         47   -7.808E+01                                 F               0         IfW Y-component position of node 16 (blade 1, node 15), m
         48    1.576E+02                                 F               0         IfW Z-component position of node 16 (blade 1, node 15), m
         49    2.572E+00                                 F               0         IfW X-component position of node 17 (blade 1, node 16), m
         50   -8.193E+01                                 F               0         IfW Y-component position of node 17 (blade 1, node 16), m
         51    1.580E+02                                 F               0         IfW Z-component position of node 17 (blade 1, node 16), m
         52    2.673E+00                                 F               0         IfW X-component position of node 18 (blade 1, node 17), m
         53   -8.577E+01                                 F               0         IfW Y-component position of node 18 (blade 1, node 17), m
         54    1.584E+02                                 F               0         IfW Z-component position of node 18 (blade 1, node 17), m
         55    2.775E+00                                 F               0         IfW X-component position of node 19 (blade 1, node 18), m
         56   -8.961E+01                                 F               0         IfW Y-component position of node 19 (blade 1, node 18), m
         57    1.589E+02                                 F               0         IfW Z-component position of node 19 (blade 1, node 18), m
         58    2.876E+00                                 F               0         IfW X-component position of node 20 (blade 1, node 19), m
         59   -9.346E+01                                 F               0         IfW Y-component position of node 20 (blade 1, node 19), m
         60    1.593E+02                                 F               0         IfW Z-component position of node 20 (blade 1, node 19), m
         61    2.977E+00                                 F               0         IfW X-component position of node 21 (blade 1, node 20), m
         62   -9.730E+01                                 F               0         IfW Y-component position of node 21 (blade 1, node 20), m
         63    1.597E+02                                 F               0         IfW Z-component position of node 21 (blade 1, node 20), m
         64    3.079E+00                                 F               0         IfW X-component position of node 22 (blade 1, node 21), m
         65   -1.011E+02                                 F               0         IfW Y-component position of node 22 (blade 1, node 21), m
         66    1.601E+02                                 F               0         IfW Z-component position of node 22 (blade 1, node 21), m
         67    3.180E+00                                 F               0         IfW X-component position of node 23 (blade 1, node 22), m
         68   -1.050E+02                                 F               0         IfW Y-component position of node 23 (blade 1, node 22), m
         69    1.606E+02                                 F               0         IfW Z-component position of node 23 (blade 1, node 22), m
         70    3.281E+00                                 F               0         IfW X-component position of node 24 (blade 1, node 23), m
         71   -1.088E+02                                 F               0         IfW Y-component position of node 24 (blade 1, node 23), m
         72    1.610E+02                                 F               0         IfW Z-component position of node 24 (blade 1, node 23), m
         73    3.383E+00                                 F               0         IfW X-component position of node 25 (blade 1, node 24), m
         74   -1.127E+02                                 F               0         IfW Y-component position of node 25 (blade 1, node 24), m
         75    1.614E+02                                 F               0         IfW Z-component position of node 25 (blade 1, node 24), m
         76    3.484E+00                                 F               0         IfW X-component position of node 26 (blade 1, node 25), m
         77   -1.165E+02                                 F               0         IfW Y-component position of node 26 (blade 1, node 25), m
         78    1.618E+02                                 F               0         IfW Z-component position of node 26 (blade 1, node 25), m
         79    3.585E+00                                 F               0         IfW X-component position of node 27 (blade 1, node 26), m
         80   -1.204E+02                                 F               0         IfW Y-component position of node 27 (blade 1, node 26), m
         81    1.623E+02                                 F               0         IfW Z-component position of node 27 (blade 1, node 26), m
         82    3.687E+00                                 F               0         IfW X-component position of node 28 (blade 1, node 27), m
         83   -1.242E+02                                 F               0         IfW Y-component position of node 28 (blade 1, node 27), m
         84    1.627E+02                                 F               0         IfW Z-component position of node 28 (blade 1, node 27), m
         85    3.773E+00                                 F               0         IfW X-component position of node 29 (blade 1, node 28), m
         86   -1.275E+02                                 F               0         IfW Y-component position of node 29 (blade 1, node 28), m
         87    1.630E+02                                 F               0         IfW Z-component position of node 29 (blade 1, node 28), m
         88   -7.258E-02                                 F               0         IfW X-component position of node 30 (blade 2, node 1), m
         89   -4.885E+00                                 F               0         IfW Y-component position of node 30 (blade 2, node 1), m
         90    1.447E+02                                 F               0         IfW Z-component position of node 30 (blade 2, node 1), m
         91   -2.345E-01                                 F               0         IfW X-component position of node 31 (blade 2, node 2), m
         92   -4.351E+00                                 F               0         IfW Y-component position of node 31 (blade 2, node 2), m
         93    1.435E+02                                 F               0         IfW Z-component position of node 31 (blade 2, node 2), m
         94   -2.436E+00                                 F               0         IfW X-component position of node 32 (blade 2, node 3), m
         95    2.906E+00                                 F               0         IfW Y-component position of node 32 (blade 2, node 3), m
         96    1.270E+02                                 F               0         IfW Z-component position of node 32 (blade 2, node 3), m
         97   -2.905E+00                                 F               0         IfW X-component position of node 33 (blade 2, node 4), m
         98    4.452E+00                                 F               0         IfW Y-component position of node 33 (blade 2, node 4), m
         99    1.235E+02                                 F               0         IfW Z-component position of node 33 (blade 2, node 4), m
        100   -3.374E+00                                 F               0         IfW X-component position of node 34 (blade 2, node 5), m
        101    5.998E+00                                 F               0         IfW Y-component position of node 34 (blade 2, node 5), m
        102    1.200E+02                                 F               0         IfW Z-component position of node 34 (blade 2, node 5), m
        103   -3.843E+00                                 F               0         IfW X-component position of node 35 (blade 2, node 6), m
        104    7.544E+00                                 F               0         IfW Y-component position of node 35 (blade 2, node 6), m
        105    1.165E+02                                 F               0         IfW Z-component position of node 35 (blade 2, node 6), m
        106   -4.312E+00                                 F               0         IfW X-component position of node 36 (blade 2, node 7), m
        107    9.091E+00                                 F               0         IfW Y-component position of node 36 (blade 2, node 7), m
        108    1.130E+02                                 F               0         IfW Z-component position of node 36 (blade 2, node 7), m
        109   -4.781E+00                                 F               0         IfW X-component position of node 37 (blade 2, node 8), m
        110    1.064E+01                                 F               0         IfW Y-component position of node 37 (blade 2, node 8), m
        111    1.095E+02                                 F               0         IfW Z-component position of node 37 (blade 2, node 8), m
        112   -5.250E+00                                 F               0         IfW X-component position of node 38 (blade 2, node 9), m
        113    1.218E+01                                 F               0         IfW Y-component position of node 38 (blade 2, node 9), m
        114    1.059E+02                                 F               0         IfW Z-component position of node 38 (blade 2, node 9), m
        115   -5.719E+00                                 F               0         IfW X-component position of node 39 (blade 2, node 10), m
        116    1.373E+01                                 F               0         IfW Y-component position of node 39 (blade 2, node 10), m
        117    1.024E+02                                 F               0         IfW Z-component position of node 39 (blade 2, node 10), m
        118   -6.188E+00                                 F               0         IfW X-component position of node 40 (blade 2, node 11), m
        119    1.528E+01                                 F               0         IfW Y-component position of node 40 (blade 2, node 11), m
        120    9.891E+01                                 F               0         IfW Z-component position of node 40 (blade 2, node 11), m
        121   -6.657E+00                                 F               0         IfW X-component position of node 41 (blade 2, node 12), m
        122    1.682E+01                                 F               0         IfW Y-component position of node 41 (blade 2, node 12), m
        123    9.540E+01                                 F               0         IfW Z-component position of node 41 (blade 2, node 12), m
        124   -7.126E+00                                 F               0         IfW X-component position of node 42 (blade 2, node 13), m
        125    1.837E+01                                 F               0         IfW Y-component position of node 42 (blade 2, node 13), m
        126    9.188E+01                                 F               0         IfW Z-component position of node 42 (blade 2, node 13), m
        127   -7.595E+00                                 F               0         IfW X-component position of node 43 (blade 2, node 14), m
        128    1.991E+01                                 F               0         IfW Y-component position of node 43 (blade 2, node 14), m
        129    8.837E+01                                 F               0         IfW Z-component position of node 43 (blade 2, node 14), m
        130   -8.065E+00                                 F               0         IfW X-component position of node 44 (blade 2, node 15), m
        131    2.146E+01                                 F               0         IfW Y-component position of node 44 (blade 2, node 15), m
        132    8.485E+01                                 F               0         IfW Z-component position of node 44 (blade 2, node 15), m
        133   -8.534E+00                                 F               0         IfW X-component position of node 45 (blade 2, node 16), m
        134    2.301E+01                                 F               0         IfW Y-component position of node 45 (blade 2, node 16), m
        135    8.134E+01                                 F               0         IfW Z-component position of node 45 (blade 2, node 16), m
        136   -9.003E+00                                 F               0         IfW X-component position of node 46 (blade 2, node 17), m
        137    2.455E+01                                 F               0         IfW Y-component position of node 46 (blade 2, node 17), m
        138    7.783E+01                                 F               0         IfW Z-component position of node 46 (blade 2, node 17), m
        139   -9.472E+00                                 F               0         IfW X-component position of node 47 (blade 2, node 18), m
        140    2.610E+01                                 F               0         IfW Y-component position of node 47 (blade 2, node 18), m
        141    7.431E+01                                 F               0         IfW Z-component position of node 47 (blade 2, node 18), m
        142   -9.941E+00                                 F               0         IfW X-component position of node 48 (blade 2, node 19), m
        143    2.765E+01                                 F               0         IfW Y-component position of node 48 (blade 2, node 19), m
        144    7.080E+01                                 F               0         IfW Z-component position of node 48 (blade 2, node 19), m
        145   -1.041E+01                                 F               0         IfW X-component position of node 49 (blade 2, node 20), m
        146    2.919E+01                                 F               0         IfW Y-component position of node 49 (blade 2, node 20), m
        147    6.728E+01                                 F               0         IfW Z-component position of node 49 (blade 2, node 20), m
        148   -1.088E+01                                 F               0         IfW X-component position of node 50 (blade 2, node 21), m
        149    3.074E+01                                 F               0         IfW Y-component position of node 50 (blade 2, node 21), m
        150    6.377E+01                                 F               0         IfW Z-component position of node 50 (blade 2, node 21), m
        151   -1.135E+01                                 F               0         IfW X-component position of node 51 (blade 2, node 22), m
        152    3.228E+01                                 F               0         IfW Y-component position of node 51 (blade 2, node 22), m
        153    6.026E+01                                 F               0         IfW Z-component position of node 51 (blade 2, node 22), m
        154   -1.182E+01                                 F               0         IfW X-component position of node 52 (blade 2, node 23), m
        155    3.383E+01                                 F               0         IfW Y-component position of node 52 (blade 2, node 23), m
        156    5.674E+01                                 F               0         IfW Z-component position of node 52 (blade 2, node 23), m
        157   -1.229E+01                                 F               0         IfW X-component position of node 53 (blade 2, node 24), m
        158    3.538E+01                                 F               0         IfW Y-component position of node 53 (blade 2, node 24), m
        159    5.323E+01                                 F               0         IfW Z-component position of node 53 (blade 2, node 24), m
        160   -1.275E+01                                 F               0         IfW X-component position of node 54 (blade 2, node 25), m
        161    3.692E+01                                 F               0         IfW Y-component position of node 54 (blade 2, node 25), m
        162    4.972E+01                                 F               0         IfW Z-component position of node 54 (blade 2, node 25), m
        163   -1.322E+01                                 F               0         IfW X-component position of node 55 (blade 2, node 26), m
        164    3.847E+01                                 F               0         IfW Y-component position of node 55 (blade 2, node 26), m
        165    4.620E+01                                 F               0         IfW Z-component position of node 55 (blade 2, node 26), m
        166   -1.369E+01                                 F               0         IfW X-component position of node 56 (blade 2, node 27), m
        167    4.002E+01                                 F               0         IfW Y-component position of node 56 (blade 2, node 27), m
        168    4.269E+01                                 F               0         IfW Z-component position of node 56 (blade 2, node 27), m
        169   -1.409E+01                                 F               0         IfW X-component position of node 57 (blade 2, node 28), m
        170    4.133E+01                                 F               0         IfW Y-component position of node 57 (blade 2, node 28), m
        171    3.971E+01                                 F               0         IfW Z-component position of node 57 (blade 2, node 28), m