
Linearized model: Predictions were generated on 31-Jan-2024 at 12:35:17 using OpenFAST, compiled as a 64-bit application using single precision at commit v3.5.1
 linked with  NWTC Subroutine Library; ElastoDyn; InflowWind; AeroDyn; ServoDyn; HydroDyn; MAP++ (<1.20.10>, <Oct-20-2023>)

Description from the FAST input file: CCT-9 Campign 4 model. Input files to be run with OpenFAST 3.5.0. GitHub branch from Lu Wang (https://github.com/luwang00/openfast/tree/dev) compiled on March 7, 2023.

Simulation information:
   Simulation time:                   502.9750 s
   Rotor Speed:                         0.8939 rad/s
   Azimuth:                             3.4049 rad
   Wind Speed:                         10.0000 m/s
   Number of continuous states:        12
   Number of discrete states:           0
   Number of constraint states:         0
   Number of inputs:                 1890
   Number of outputs:                  19
   Jacobians included in this file?    No

Order of continuous states:
   Row/Column Operating Point                     Rotating Frame? Derivative Order Description
   ---------- ---------------                     --------------- ---------------- -----------
          1    8.171E+00                                 F               2         Platform horizontal surge translation DOF (internal DOF index = DOF_Sg), m
          2   -5.747E-02                                 F               2         Platform vertical heave translation DOF (internal DOF index = DOF_Hv), m
          3    7.094E-03                                 F               2         Platform yaw rotation DOF (internal DOF index = DOF_Y), rad
          4    3.842E-01                                 F               2         1st tower fore-aft bending mode DOF (internal DOF index = DOF_TFA1), m
          5    1.290E-03                                 F               2         2nd tower fore-aft bending mode DOF (internal DOF index = DOF_TFA2), m
          6    1.834E+00                                 F               2         Variable speed generator DOF (internal DOF index = DOF_GeAz), rad
          7   -9.271E-04                                 F               2         First time derivative of Platform horizontal surge translation DOF (internal DOF index = DOF_Sg), m/s
          8   -5.558E-03                                 F               2         First time derivative of Platform vertical heave translation DOF (internal DOF index = DOF_Hv), m/s
          9    3.997E-06                                 F               2         First time derivative of Platform yaw rotation DOF (internal DOF index = DOF_Y), rad/s
         10   -8.413E-04                                 F               2         First time derivative of 1st tower fore-aft bending mode DOF (internal DOF index = DOF_TFA1), m/s
         11    1.055E-06                                 F               2         First time derivative of 2nd tower fore-aft bending mode DOF (internal DOF index = DOF_TFA2), m/s
         12    8.939E-01                                 F               2         First time derivative of Variable speed generator DOF (internal DOF index = DOF_GeAz), rad/s

Order of continuous state derivatives:
   Row/Column Operating Point                     Rotating Frame? Derivative Order Description
   ---------- ---------------                     --------------- ---------------- -----------
          1   -9.271E-04                                 F               2         First time derivative of Platform horizontal surge translation DOF (internal DOF index = DOF_Sg), m/s
          2   -5.558E-03                                 F               2         First time derivative of Platform vertical heave translation DOF (internal DOF index = DOF_Hv), m/s
          3    3.997E-06                                 F               2         First time derivative of Platform yaw rotation DOF (internal DOF index = DOF_Y), rad/s
          4   -8.413E-04                                 F               2         First time derivative of 1st tower fore-aft bending mode DOF (internal DOF index = DOF_TFA1), m/s
          5    1.055E-06                                 F               2         First time derivative of 2nd tower fore-aft bending mode DOF (internal DOF index = DOF_TFA2), m/s
          6    8.939E-01                                 F               2         First time derivative of Variable speed generator DOF (internal DOF index = DOF_GeAz), rad/s
          7   -4.499E-04                                 F               2         First time derivative of First time derivative of Platform horizontal surge translation DOF (internal DOF index = DOF_Sg), m/s/s
          8   -1.943E-03                                 F               2         First time derivative of First time derivative of Platform vertical heave translation DOF (internal DOF index = DOF_Hv), m/s/s
          9    9.045E-07                                 F               2         First time derivative of First time derivative of Platform yaw rotation DOF (internal DOF index = DOF_Y), rad/s/s
         10    5.842E-04                                 F               2         First time derivative of First time derivative of 1st tower fore-aft bending mode DOF (internal DOF index = DOF_TFA1), m/s/s
         11    2.771E-06                                 F               2         First time derivative of First time derivative of 2nd tower fore-aft bending mode DOF (internal DOF index = DOF_TFA2), m/s/s
         12    1.423E-04                                 F               2         First time derivative of First time derivative of Variable speed generator DOF (internal DOF index = DOF_GeAz), rad/s/s

Order of inputs:
     Column   Operating Point                     Rotating Frame? Derivative Order Description
   ---------- ---------------                     --------------- ---------------- -----------
          1    7.192E+01                                 F               0         Blade 1 X force, node 1, N
          2   -7.052E+01                                 F               0         Blade 1 Y force, node 1, N
          3   -3.191E+01                                 F               0         Blade 1 Z force, node 1, N
          4    3.164E+02                                 F               0         Blade 1 X force, node 2, N
          5   -1.322E+02                                 F               0         Blade 1 Y force, node 2, N
          6   -8.378E+01                                 F               0         Blade 1 Z force, node 2, N
          7    4.238E+02                                 F               0         Blade 1 X force, node 3, N
          8   -7.044E+01                                 F               0         Blade 1 Y force, node 3, N
          9   -7.832E+01                                 F               0         Blade 1 Z force, node 3, N
         10    5.649E+02                                 F               0         Blade 1 X force, node 4, N
         11   -2.465E+01                                 F               0         Blade 1 Y force, node 4, N
         12   -8.239E+01                                 F               0         Blade 1 Z force, node 4, N
         13    7.061E+02                                 F               0         Blade 1 X force, node 5, N
         14    2.115E+01                                 F               0         Blade 1 Y force, node 5, N
         15   -8.646E+01                                 F               0         Blade 1 Z force, node 5, N
         16    8.472E+02                                 F               0         Blade 1 X force, node 6, N
         17    6.694E+01                                 F               0         Blade 1 Y force, node 6, N
         18   -9.052E+01                                 F               0         Blade 1 Z force, node 6, N
         19    9.883E+02                                 F               0         Blade 1 X force, node 7, N
         20    1.127E+02                                 F               0         Blade 1 Y force, node 7, N
         21   -9.459E+01                                 F               0         Blade 1 Z force, node 7, N
         22    1.129E+03                                 F               0         Blade 1 X force, node 8, N
         23    1.585E+02                                 F               0         Blade 1 Y force, node 8, N
         24   -9.865E+01                                 F               0         Blade 1 Z force, node 8, N
         25    1.271E+03                                 F               0         Blade 1 X force, node 9, N
         26    2.043E+02                                 F               0         Blade 1 Y force, node 9, N
         27   -1.027E+02                                 F               0         Blade 1 Z force, node 9, N
         28    1.412E+03                                 F               0         Blade 1 X force, node 10, N
         29    2.501E+02                                 F               0         Blade 1 Y force, node 10, N
         30   -1.068E+02                                 F               0         Blade 1 Z force, node 10, N
         31    1.553E+03                                 F               0         Blade 1 X force, node 11, N
         32    2.959E+02                                 F               0         Blade 1 Y force, node 11, N
         33   -1.109E+02                                 F               0         Blade 1 Z force, node 11, N
         34    1.694E+03                                 F               0         Blade 1 X force, node 12, N
         35    3.417E+02                                 F               0         Blade 1 Y force, node 12, N
         36   -1.149E+02                                 F               0         Blade 1 Z force, node 12, N
         37    1.835E+03                                 F               0         Blade 1 X force, node 13, N
         38    3.875E+02                                 F               0         Blade 1 Y force, node 13, N
         39   -1.190E+02                                 F               0         Blade 1 Z force, node 13, N
         40    1.976E+03                                 F               0         Blade 1 X force, node 14, N
         41    4.333E+02                                 F               0         Blade 1 Y force, node 14, N
         42   -1.231E+02                                 F               0         Blade 1 Z force, node 14, N
         43    2.117E+03                                 F               0         Blade 1 X force, node 15, N
         44    4.791E+02                                 F               0         Blade 1 Y force, node 15, N
         45   -1.271E+02                                 F               0         Blade 1 Z force, node 15, N
         46    2.258E+03                                 F               0         Blade 1 X force, node 16, N
         47    5.249E+02                                 F               0         Blade 1 Y force, node 16, N
         48   -1.312E+02                                 F               0         Blade 1 Z force, node 16, N
         49    2.784E+03                                 F               0         Blade 1 X force, node 17, N
         50    6.593E+02                                 F               0         Blade 1 Y force, node 17, N
         51   -1.578E+02                                 F               0         Blade 1 Z force, node 17, N
         52    2.137E+03                                 F               0         Blade 1 X force, node 18, N
         53    4.894E+02                                 F               0         Blade 1 Y force, node 18, N
         54   -1.264E+02                                 F               0         Blade 1 Z force, node 18, N
         55    2.637E+03                                 F               0         Blade 1 X force, node 19, N
         56    5.754E+02                                 F               0         Blade 1 Y force, node 19, N
         57   -1.651E+02                                 F               0         Blade 1 Z force, node 19, N
         58    2.261E+03                                 F               0         Blade 1 X force, node 20, N
         59    4.707E+02                                 F               0         Blade 1 Y force, node 20, N
         60   -1.487E+02                                 F               0         Blade 1 Z force, node 20, N
         61    3.358E+03                                 F               0         Blade 1 X force, node 21, N
         62    6.623E+02                                 F               0         Blade 1 Y force, node 21, N
         63   -2.326E+02                                 F               0         Blade 1 Z force, node 21, N
         64    2.981E+03                                 F               0         Blade 1 X force, node 22, N
         65    5.567E+02                                 F               0         Blade 1 Y force, node 22, N
         66   -2.164E+02                                 F               0         Blade 1 Z force, node 22, N
         67    3.076E+03                                 F               0         Blade 1 X force, node 23, N
         68    5.467E+02                                 F               0         Blade 1 Y force, node 23, N
         69   -2.322E+02                                 F               0         Blade 1 Z force, node 23, N
         70    3.227E+03                                 F               0         Blade 1 X force, node 24, N
         71    5.461E+02                                 F               0         Blade 1 Y force, node 24, N
         72   -2.522E+02                                 F               0         Blade 1 Z force, node 24, N
         73    3.321E+03                                 F               0         Blade 1 X force, node 25, N
         74    5.354E+02                                 F               0         Blade 1 Y force, node 25, N
         75   -2.681E+02                                 F               0         Blade 1 Z force, node 25, N
         76    3.434E+03                                 F               0         Blade 1 X force, node 26, N
         77    5.277E+02                                 F               0         Blade 1 Y force, node 26, N
         78   -2.854E+02                                 F               0         Blade 1 Z force, node 26, N
         79    4.131E+03                                 F               0         Blade 1 X force, node 27, N
         80    6.041E+02                                 F               0         Blade 1 Y force, node 27, N
         81   -3.531E+02                                 F               0         Blade 1 Z force, node 27, N
         82    3.074E+03                                 F               0         Blade 1 X force, node 28, N
         83    4.282E+02                                 F               0         Blade 1 Y force, node 28, N
         84   -2.695E+02                                 F               0         Blade 1 Z force, node 28, N
         85    3.771E+03                                 F               0         Blade 1 X force, node 29, N
         86    5.042E+02                                 F               0         Blade 1 Y force, node 29, N
         87   -3.374E+02                                 F               0         Blade 1 Z force, node 29, N
         88    3.217E+03                                 F               0         Blade 1 X force, node 30, N
         89    4.132E+02                                 F               0         Blade 1 Y force, node 30, N
         90   -2.932E+02                                 F               0         Blade 1 Z force, node 30, N
         91    4.663E+03                                 F               0         Blade 1 X force, node 31, N
         92    5.712E+02                                 F               0         Blade 1 Y force, node 31, N
         93   -4.337E+02                                 F               0         Blade 1 Z force, node 31, N
         94    4.108E+03                                 F               0         Blade 1 X force, node 32, N
         95    4.798E+02                                 F               0         Blade 1 Y force, node 32, N
         96   -3.896E+02                                 F               0         Blade 1 Z force, node 32, N
         97    4.219E+03                                 F               0         Blade 1 X force, node 33, N
         98    4.714E+02                                 F               0         Blade 1 Y force, node 33, N
         99   -4.070E+02                                 F               0         Blade 1 Z force, node 33, N
        100    4.332E+03                                 F               0         Blade 1 X force, node 34, N
        101    4.630E+02                                 F               0         Blade 1 Y force, node 34, N
        102   -4.244E+02                                 F               0         Blade 1 Z force, node 34, N
        103    4.444E+03                                 F               0         Blade 1 X force, node 35, N
        104    4.546E+02                                 F               0         Blade 1 Y force, node 35, N
        105   -4.419E+02                                 F               0         Blade 1 Z force, node 35, N
        106    4.555E+03                                 F               0         Blade 1 X force, node 36, N
        107    4.460E+02                                 F               0         Blade 1 Y force, node 36, N
        108   -4.593E+02                                 F               0         Blade 1 Z force, node 36, N
        109    5.461E+03                                 F               0         Blade 1 X force, node 37, N
        110    5.104E+02                                 F               0         Blade 1 Y force, node 37, N
        111   -5.583E+02                                 F               0         Blade 1 Z force, node 37, N
        112    3.985E+03                                 F               0         Blade 1 X force, node 38, N
        113    3.559E+02                                 F               0         Blade 1 Y force, node 38, N
        114   -4.127E+02                                 F               0         Blade 1 Z force, node 38, N
        115    4.892E+03                                 F               0         Blade 1 X force, node 39, N
        116    4.204E+02                                 F               0         Blade 1 Y force, node 39, N
        117   -5.119E+02                                 F               0         Blade 1 Z force, node 39, N
        118    4.177E+03                                 F               0         Blade 1 X force, node 40, N
        119    3.455E+02                                 F               0         Blade 1 Y force, node 40, N
        120   -4.415E+02                                 F               0         Blade 1 Z force, node 40, N
        121    5.943E+03                                 F               0         Blade 1 X force, node 41, N
        122    4.697E+02                                 F               0         Blade 1 Y force, node 41, N
        123   -6.350E+02                                 F               0         Blade 1 Z force, node 41, N
        124    5.227E+03                                 F               0         Blade 1 X force, node 42, N
        125    3.944E+02                                 F               0         Blade 1 Y force, node 42, N
        126   -5.644E+02                                 F               0         Blade 1 Z force, node 42, N
        127    5.338E+03                                 F               0         Blade 1 X force, node 43, N
        128    3.856E+02                                 F               0         Blade 1 Y force, node 43, N
        129   -5.819E+02                                 F               0         Blade 1 Z force, node 43, N
        130    5.478E+03                                 F               0         Blade 1 X force, node 44, N
        131    3.786E+02                                 F               0         Blade 1 Y force, node 44, N
        132   -6.025E+02                                 F               0         Blade 1 Z force, node 44, N
        133    5.531E+03                                 F               0         Blade 1 X force, node 45, N
        134    3.658E+02                                 F               0         Blade 1 Y force, node 45, N
        135   -6.136E+02                                 F               0         Blade 1 Z force, node 45, N
        136    5.671E+03                                 F               0         Blade 1 X force, node 46, N
        137    3.589E+02                                 F               0         Blade 1 Y force, node 46, N
        138   -6.343E+02                                 F               0         Blade 1 Z force, node 46, N
        139    6.797E+03                                 F               0         Blade 1 X force, node 47, N
        140    4.102E+02                                 F               0         Blade 1 Y force, node 47, N
        141   -7.666E+02                                 F               0         Blade 1 Z force, node 47, N
        142    4.878E+03                                 F               0         Blade 1 X force, node 48, N
        143    2.808E+02                                 F               0         Blade 1 Y force, node 48, N
        144   -5.544E+02                                 F               0         Blade 1 Z force, node 48, N
        145    6.003E+03                                 F               0         Blade 1 X force, node 49, N
        146    3.320E+02                                 F               0         Blade 1 Y force, node 49, N
        147   -6.866E+02                                 F               0         Blade 1 Z force, node 49, N
        148    5.141E+03                                 F               0         Blade 1 X force, node 50, N
        149    2.729E+02                                 F               0         Blade 1 Y force, node 50, N
        150   -5.916E+02                                 F               0         Blade 1 Z force, node 50, N
        151    7.197E+03                                 F               0         Blade 1 X force, node 51, N
        152    3.641E+02                                 F               0         Blade 1 Y force, node 51, N
        153   -8.340E+02                                 F               0         Blade 1 Z force, node 51, N
        154    6.336E+03                                 F               0         Blade 1 X force, node 52, N
        155    3.052E+02                                 F               0         Blade 1 Y force, node 52, N
        156   -7.392E+02                                 F               0         Blade 1 Z force, node 52, N
        157    6.449E+03                                 F               0         Blade 1 X force, node 53, N
        158    2.963E+02                                 F               0         Blade 1 Y force, node 53, N
        159   -7.568E+02                                 F               0         Blade 1 Z force, node 53, N
        160    6.633E+03                                 F               0         Blade 1 X force, node 54, N
        161    2.905E+02                                 F               0         Blade 1 Y force, node 54, N
        162   -7.829E+02                                 F               0         Blade 1 Z force, node 54, N
        163    6.600E+03                                 F               0         Blade 1 X force, node 55, N
        164    2.754E+02                                 F               0         Blade 1 Y force, node 55, N
        165   -7.834E+02                                 F               0         Blade 1 Z force, node 55, N
        166    6.784E+03                                 F               0         Blade 1 X force, node 56, N
        167    2.695E+02                                 F               0         Blade 1 Y force, node 56, N
        168   -8.095E+02                                 F               0         Blade 1 Z force, node 56, N
        169    8.143E+03                                 F               0         Blade 1 X force, node 57, N
        170    3.066E+02                                 F               0         Blade 1 Y force, node 57, N
        171   -9.771E+02                                 F               0         Blade 1 Z force, node 57, N
        172    5.758E+03                                 F               0         Blade 1 X force, node 58, N
        173    2.054E+02                                 F               0         Blade 1 Y force, node 58, N
        174   -6.946E+02                                 F               0         Blade 1 Z force, node 58, N
        175    7.118E+03                                 F               0         Blade 1 X force, node 59, N
        176    2.425E+02                                 F               0         Blade 1 Y force, node 59, N
        177   -8.622E+02                                 F               0         Blade 1 Z force, node 59, N
        178    6.122E+03                                 F               0         Blade 1 X force, node 60, N
        179    1.988E+02                                 F               0         Blade 1 Y force, node 60, N
        180   -7.448E+02                                 F               0         Blade 1 Z force, node 60, N
        181    8.448E+03                                 F               0         Blade 1 X force, node 61, N
        182    2.591E+02                                 F               0         Blade 1 Y force, node 61, N
        183   -1.032E+03                                 F               0         Blade 1 Z force, node 61, N
        184    7.450E+03                                 F               0         Blade 1 X force, node 62, N
        185    2.152E+02                                 F               0         Blade 1 Y force, node 62, N
        186   -9.147E+02                                 F               0         Blade 1 Z force, node 62, N
        187    7.559E+03                                 F               0         Blade 1 X force, node 63, N
        188    2.060E+02                                 F               0         Blade 1 Y force, node 63, N
        189   -9.321E+02                                 F               0         Blade 1 Z force, node 63, N
        190    7.797E+03                                 F               0         Blade 1 X force, node 64, N
        191    2.000E+02                                 F               0         Blade 1 Y force, node 64, N
        192   -9.654E+02                                 F               0         Blade 1 Z force, node 64, N
        193    7.653E+03                                 F               0         Blade 1 X force, node 65, N
        194    1.846E+02                                 F               0         Blade 1 Y force, node 65, N
        195   -9.512E+02                                 F               0         Blade 1 Z force, node 65, N
        196    7.894E+03                                 F               0         Blade 1 X force, node 66, N
        197    1.789E+02                                 F               0         Blade 1 Y force, node 66, N
        198   -9.849E+02                                 F               0         Blade 1 Z force, node 66, N
        199    9.499E+03                                 F               0         Blade 1 X force, node 67, N
        200    2.007E+02                                 F               0         Blade 1 Y force, node 67, N
        201   -1.190E+03                                 F               0         Blade 1 Z force, node 67, N
        202    6.627E+03                                 F               0         Blade 1 X force, node 68, N
        203    1.302E+02                                 F               0         Blade 1 Y force, node 68, N
        204   -8.332E+02                                 F               0         Blade 1 Z force, node 68, N
        205    8.230E+03                                 F               0         Blade 1 X force, node 69, N
        206    1.517E+02                                 F               0         Blade 1 Y force, node 69, N
        207   -1.038E+03                                 F               0         Blade 1 Z force, node 69, N
        208    7.113E+03                                 F               0         Blade 1 X force, node 70, N
        209    1.224E+02                                 F               0         Blade 1 Y force, node 70, N
        210   -8.998E+02                                 F               0         Blade 1 Z force, node 70, N
        211    9.678E+03                                 F               0         Blade 1 X force, node 71, N
        212    1.532E+02                                 F               0         Blade 1 Y force, node 71, N
        213   -1.228E+03                                 F               0         Blade 1 Z force, node 71, N
        214    8.558E+03                                 F               0         Blade 1 X force, node 72, N
        215    1.236E+02                                 F               0         Blade 1 Y force, node 72, N
        216   -1.090E+03                                 F               0         Blade 1 Z force, node 72, N
        217    8.665E+03                                 F               0         Blade 1 X force, node 73, N