
Linearized model: Predictions were generated on 13-Feb-2024 at 11:29:37 using OpenFAST, compiled as a 64-bit application using single precision at commit v3.5.1
 linked with  NWTC Subroutine Library; ElastoDyn; InflowWind; AeroDyn; ServoDyn; HydroDyn; MAP++ (<1.20.10>, <Oct-20-2023>)

Description from the FAST input file: CCT-9 Campign 4 model. Input files to be run with OpenFAST 3.5.0. GitHub branch from Lu Wang (https://github.com/luwang00/openfast/tree/dev) compiled on March 7, 2023.

Simulation information:
   Simulation time:                  1213.9250 s
   Rotor Speed:                         0.7917 rad/s
   Azimuth:                             2.4539 rad
   Wind Speed:                         16.0000 m/s
   Number of continuous states:         0
   Number of discrete states:           0
   Number of constraint states:         0
   Number of inputs:                 1746
   Number of outputs:                   4
   Jacobians included in this file?    No

Order of inputs:
     Column   Operating Point                                                   Rotating Frame? Derivative Order Description
   ---------- ---------------                                                   --------------- ---------------- -----------
          1     1.07029819489E+001                                                     F               0         Tower X translation displacement, node 1, m
          2    -1.55791676044E+000                                                     F               0         Tower Y translation displacement, node 1, m
          3    -2.71477758884E-001                                                     F               0         Tower Z translation displacement, node 1, m
          4     1.20890359879E+001                                                     F               0         Tower X translation displacement, node 2, m
          5    -2.19085669518E+000                                                     F               0         Tower Y translation displacement, node 2, m
          6    -3.65799427032E-001                                                     F               0         Tower Z translation displacement, node 2, m
          7     1.34750900269E+001                                                     F               0         Tower X translation displacement, node 3, m
          8    -2.82379674911E+000                                                     F               0         Tower Y translation displacement, node 3, m
          9    -4.60119009018E-001                                                     F               0         Tower Z translation displacement, node 3, m
         10     1.48611440659E+001                                                     F               0         Tower X translation displacement, node 4, m
         11    -3.45673656464E+000                                                     F               0         Tower Y translation displacement, node 4, m
         12    -5.54438769817E-001                                                     F               0         Tower Z translation displacement, node 4, m
         13     1.62472000122E+001                                                     F               0         Tower X translation displacement, node 5, m
         14    -4.08967685699E+000                                                     F               0         Tower Y translation displacement, node 5, m
         15    -6.48755729198E-001                                                     F               0         Tower Z translation displacement, node 5, m
         16     1.76332530975E+001                                                     F               0         Tower X translation displacement, node 6, m
         17    -4.72261619568E+000                                                     F               0         Tower Y translation displacement, node 6, m
         18    -7.43083238602E-001                                                     F               0         Tower Z translation displacement, node 6, m
         19     1.90193080902E+001                                                     F               0         Tower X translation displacement, node 7, m
         20    -5.35555696487E+000                                                     F               0         Tower Y translation displacement, node 7, m
         21    -8.37396800518E-001                                                     F               0         Tower Z translation displacement, node 7, m
         22     2.04053611755E+001                                                     F               0         Tower X translation displacement, node 8, m
         23    -5.98849630356E+000                                                     F               0         Tower Y translation displacement, node 8, m
         24    -9.31722402573E-001                                                     F               0         Tower Z translation displacement, node 8, m
         25     2.17914161682E+001                                                     F               0         Tower X translation displacement, node 9, m
         26    -6.62143707275E+000                                                     F               0         Tower Y translation displacement, node 9, m
         27    -1.02603900433E+000                                                     F               0         Tower Z translation displacement, node 9, m
         28     2.31774692535E+001                                                     F               0         Tower X translation displacement, node 10, m
         29    -7.25437688828E+000                                                     F               0         Tower Y translation displacement, node 10, m
         30    -1.12036168575E+000                                                     F               0         Tower Z translation displacement, node 10, m
         31     2.45635242462E+001                                                     F               0         Tower X translation displacement, node 11, m
         32    -7.88731670380E+000                                                     F               0         Tower Y translation displacement, node 11, m
         33    -1.21468126774E+000                                                     F               0         Tower Z translation displacement, node 11, m
         34     9.93684411049E-001,   3.40368784964E-003,  -1.12159051001E-001         F               0         Tower X orientation angle, node 1, rad
         35     2.36814445816E-003,   9.98681128025E-001,   5.12877628207E-002         F               0         Tower Y orientation angle, node 1, rad
         36     1.12185694277E-001,  -5.12294620275E-002,   9.92365837097E-001         F               0         Tower Z orientation angle, node 1, rad
         37     9.93684411049E-001,   3.40368784964E-003,  -1.12159051001E-001         F               0         Tower X orientation angle, node 2, rad
         38     2.36814445816E-003,   9.98681128025E-001,   5.12877628207E-002         F               0         Tower Y orientation angle, node 2, rad
         39     1.12185694277E-001,  -5.12294620275E-002,   9.92365837097E-001         F               0         Tower Z orientation angle, node 2, rad
         40     9.93684411049E-001,   3.40368784964E-003,  -1.12159051001E-001         F               0         Tower X orientation angle, node 3, rad
         41     2.36814445816E-003,   9.98681128025E-001,   5.12877628207E-002         F               0         Tower Y orientation angle, node 3, rad
         42     1.12185694277E-001,  -5.12294620275E-002,   9.92365837097E-001         F               0         Tower Z orientation angle, node 3, rad
         43     9.93684411049E-001,   3.40368784964E-003,  -1.12159051001E-001         F               0         Tower X orientation angle, node 4, rad
         44     2.36814445816E-003,   9.98681128025E-001,   5.12877628207E-002         F               0         Tower Y orientation angle, node 4, rad
         45     1.12185694277E-001,  -5.12294620275E-002,   9.92365837097E-001         F               0         Tower Z orientation angle, node 4, rad
         46     9.93684411049E-001,   3.40368784964E-003,  -1.12159051001E-001         F               0         Tower X orientation angle, node 5, rad
         47     2.36814445816E-003,   9.98681128025E-001,   5.12877628207E-002         F               0         Tower Y orientation angle, node 5, rad
         48     1.12185694277E-001,  -5.12294620275E-002,   9.92365837097E-001         F               0         Tower Z orientation angle, node 5, rad
         49     9.93684411049E-001,   3.40368784964E-003,  -1.12159051001E-001         F               0         Tower X orientation angle, node 6, rad
         50     2.36814445816E-003,   9.98681128025E-001,   5.12877628207E-002         F               0         Tower Y orientation angle, node 6, rad
         51     1.12185694277E-001,  -5.12294620275E-002,   9.92365837097E-001         F               0         Tower Z orientation angle, node 6, rad
         52     9.93684411049E-001,   3.40368784964E-003,  -1.12159051001E-001         F               0         Tower X orientation angle, node 7, rad
         53     2.36814445816E-003,   9.98681128025E-001,   5.12877628207E-002         F               0         Tower Y orientation angle, node 7, rad
         54     1.12185694277E-001,  -5.12294620275E-002,   9.92365837097E-001         F               0         Tower Z orientation angle, node 7, rad
         55     9.93684411049E-001,   3.40368761681E-003,  -1.12159051001E-001         F               0         Tower X orientation angle, node 8, rad
         56     2.36814422533E-003,   9.98681128025E-001,   5.12877628207E-002         F               0         Tower Y orientation angle, node 8, rad
         57     1.12185694277E-001,  -5.12294620275E-002,   9.92365837097E-001         F               0         Tower Z orientation angle, node 8, rad
         58     9.93684411049E-001,   3.40368808247E-003,  -1.12159058452E-001         F               0         Tower X orientation angle, node 9, rad
         59     2.36814445816E-003,   9.98681128025E-001,   5.12877665460E-002         F               0         Tower Y orientation angle, node 9, rad
         60     1.12185694277E-001,  -5.12294620275E-002,   9.92365837097E-001         F               0         Tower Z orientation angle, node 9, rad
         61     9.93684411049E-001,   3.40368784964E-003,  -1.12159051001E-001         F               0         Tower X orientation angle, node 10, rad
         62     2.36814445816E-003,   9.98681128025E-001,   5.12877628207E-002         F               0         Tower Y orientation angle, node 10, rad
         63     1.12185694277E-001,  -5.12294620275E-002,   9.92365837097E-001         F               0         Tower Z orientation angle, node 10, rad
         64     9.93684411049E-001,   3.40368784964E-003,  -1.12159051001E-001         F               0         Tower X orientation angle, node 11, rad
         65     2.36814445816E-003,   9.98681128025E-001,   5.12877628207E-002         F               0         Tower Y orientation angle, node 11, rad
         66     1.12185694277E-001,  -5.12294620275E-002,   9.92365837097E-001         F               0         Tower Z orientation angle, node 11, rad
         67     4.08569496358E-004                                                     F               0         Tower X translation velocity, node 1, m/s
         68    -1.80127564818E-004                                                     F               0         Tower Y translation velocity, node 1, m/s
         69    -3.06161073968E-003                                                     F               0         Tower Z translation velocity, node 1, m/s
         70     5.70067088120E-004                                                     F               0         Tower X translation velocity, node 2, m/s
         71    -3.12965712510E-004                                                     F               0         Tower Y translation velocity, node 2, m/s
         72    -3.08672548272E-003                                                     F               0         Tower Z translation velocity, node 2, m/s
         73     7.31564825401E-004                                                     F               0         Tower X translation velocity, node 3, m/s
         74    -4.45803860202E-004                                                     F               0         Tower Y translation velocity, node 3, m/s
         75    -3.11184022576E-003                                                     F               0         Tower Z translation velocity, node 3, m/s
         76     8.93062446266E-004                                                     F               0         Tower X translation velocity, node 4, m/s
         77    -5.78642007895E-004                                                     F               0         Tower Y translation velocity, node 4, m/s
         78    -3.13695496880E-003                                                     F               0         Tower Z translation velocity, node 4, m/s
         79     1.05456018355E-003                                                     F               0         Tower X translation velocity, node 5, m/s
         80    -7.11480213795E-004                                                     F               0         Tower Y translation velocity, node 5, m/s
         81    -3.16206971183E-003                                                     F               0         Tower Z translation velocity, node 5, m/s
         82     1.21605768800E-003                                                     F               0         Tower X translation velocity, node 6, m/s
         83    -8.44318245072E-004                                                     F               0         Tower Y translation velocity, node 6, m/s
         84    -3.18718422204E-003                                                     F               0         Tower Z translation velocity, node 6, m/s
         85     1.37755554169E-003                                                     F               0         Tower X translation velocity, node 7, m/s
         86    -9.77156567387E-004                                                     F               0         Tower Y translation velocity, node 7, m/s
         87    -3.21229896508E-003                                                     F               0         Tower Z translation velocity, node 7, m/s
         88     1.53905304614E-003                                                     F               0         Tower X translation velocity, node 8, m/s
         89    -1.10999459866E-003                                                     F               0         Tower Y translation velocity, node 8, m/s
         90    -3.23741370812E-003                                                     F               0         Tower Z translation velocity, node 8, m/s
         91     1.70055089984E-003                                                     F               0         Tower X translation velocity, node 9, m/s
         92    -1.24283286277E-003                                                     F               0         Tower Y translation velocity, node 9, m/s
         93    -3.26252845116E-003                                                     F               0         Tower Z translation velocity, node 9, m/s
         94     1.86204852071E-003                                                     F               0         Tower X translation velocity, node 10, m/s
         95    -1.37567101046E-003                                                     F               0         Tower Y translation velocity, node 10, m/s
         96    -3.28764296137E-003                                                     F               0         Tower Z translation velocity, node 10, m/s
         97     2.02354602516E-003                                                     F               0         Tower X translation velocity, node 11, m/s
         98    -1.50850904174E-003                                                     F               0         Tower Y translation velocity, node 11, m/s
         99    -3.31275770441E-003                                                     F               0         Tower Z translation velocity, node 11, m/s
        100     2.55124130249E+001                                                     F               0         Hub X translation displacement, node 1, m
        101    -8.32623863220E+000                                                     F               0         Hub Y translation displacement, node 1, m
        102    -6.32309466600E-002                                                     F               0         Hub Z translation displacement, node 1, m
        103     9.76514339447E-001,   8.73997900635E-003,  -2.15275108814E-001         F               0         Hub X orientation angle, node 1, rad
        104     1.34918645024E-001,  -8.03818166256E-001,   5.79373240471E-001         F               0         Hub Y orientation angle, node 1, rad
        105    -1.67978331447E-001,  -5.94810903072E-001,  -7.86119103432E-001         F               0         Hub Z orientation angle, node 1, rad
        106     7.73125469685E-001                                                     F               0         Hub X rotation velocity, node 1, rad/s
        107     6.93278061226E-003                                                     F               0         Hub Y rotation velocity, node 1, rad/s
        108    -1.70436948538E-001                                                     F               0         Hub Z rotation velocity, node 1, rad/s
        109     9.47819650173E-001,   1.21743060648E-001,  -2.94646501541E-001         F               0         Blade root 1 X orientation angle, node 1, rad
        110     2.70963519812E-001,  -7.94593393803E-001,   5.43323278427E-001         F               0         Blade root 1 Y orientation angle, node 1, rad
        111    -1.67978331447E-001,  -5.94810903072E-001,  -7.86119103432E-001         F               0         Blade root 1 Z orientation angle, node 1, rad
        112     9.96759235859E-001,   2.45810002089E-002,  -7.65952318907E-002         F               0         Blade root 2 X orientation angle, node 1, rad
        113    -7.34280720353E-002,  -1.10856577754E-001,  -9.91120159626E-001         F               0         Blade root 2 Y orientation angle, node 1, rad
        114    -3.28538082540E-002,   9.93532359600E-001,  -1.08692377806E-001         F               0         Blade root 2 Z orientation angle, node 1, rad
        115     9.55825567245E-001,  -1.20364926755E-001,  -2.68159925938E-001         F               0         Blade root 3 X orientation angle, node 1, rad
        116     2.14625030756E-001,   9.09138858318E-001,   3.56935054064E-001         F               0         Blade root 3 Y orientation angle, node 1, rad
        117     2.00832143426E-001,  -3.98721486330E-001,   8.94811511040E-001         F               0         Blade root 3 Z orientation angle, node 1, rad
        118     2.40027256012E+001                                                     F               0         Blade 1 X translation displacement, node 1, m
        119    -1.16214914322E+001                                                     F               0         Blade 1 Y translation displacement, node 1, m
        120    -9.92798995972E+000                                                     F               0         Blade 1 Z translation displacement, node 1, m
        121     2.36389541626E+001                                                     F               0         Blade 1 X translation displacement, node 2, m
        122    -1.24155073166E+001                                                     F               0         Blade 1 Y translation displacement, node 2, m
        123    -1.23049755096E+001                                                     F               0         Blade 1 Z translation displacement, node 2, m
        124     1.86923007965E+001                                                     F               0         Blade 1 X translation displacement, node 3, m
        125    -2.32127571106E+001                                                     F               0         Blade 1 Y translation displacement, node 3, m
        126    -4.46278915405E+001                                                     F               0         Blade 1 Z translation displacement, node 3, m
        127     1.76383857727E+001                                                     F               0         Blade 1 X translation displacement, node 4, m
        128    -2.55131740570E+001                                                     F               0         Blade 1 Y translation displacement, node 4, m
        129    -5.15144882202E+001                                                     F               0         Blade 1 Z translation displacement, node 4, m
        130     1.65842723846E+001                                                     F               0         Blade 1 X translation displacement, node 5, m
        131    -2.78140296936E+001                                                     F               0         Blade 1 Y translation displacement, node 5, m
        132    -5.84023818970E+001                                                     F               0         Blade 1 Z translation displacement, node 5, m
        133     1.55303535461E+001                                                     F               0         Blade 1 X translation displacement, node 6, m
        134    -3.01144561768E+001                                                     F               0         Blade 1 Y translation displacement, node 6, m
        135    -6.52890014648E+001                                                     F               0         Blade 1 Z translation displacement, node 6, m
        136     1.44764318466E+001                                                     F               0         Blade 1 X translation displacement, node 7, m
        137    -3.24148902893E+001                                                     F               0         Blade 1 Y translation displacement, node 7, m
        138    -7.21756362915E+001                                                     F               0         Blade 1 Z translation displacement, node 7, m
        139     1.34223222733E+001                                                     F               0         Blade 1 X translation displacement, node 8, m
        140    -3.47157363892E+001                                                     F               0         Blade 1 Y translation displacement, node 8, m
        141    -7.90635223389E+001                                                     F               0         Blade 1 Z translation displacement, node 8, m
        142     1.23683996201E+001                                                     F               0         Blade 1 X translation displacement, node 9, m
        143    -3.70161743164E+001                                                     F               0         Blade 1 Y translation displacement, node 9, m
        144    -8.59501495361E+001                                                     F               0         Blade 1 Z translation displacement, node 9, m
        145     1.13144817352E+001                                                     F               0         Blade 1 X translation displacement, node 10, m
        146    -3.93166007996E+001                                                     F               0         Blade 1 Y translation displacement, node 10, m
        147    -9.28367767334E+001                                                     F               0         Blade 1 Z translation displacement, node 10, m
        148     1.02605590820E+001                                                     F               0         Blade 1 X translation displacement, node 11, m
        149    -4.16170349121E+001                                                     F               0         Blade 1 Y translation displacement, node 11, m
        150    -9.97234115601E+001                                                     F               0         Blade 1 Z translation displacement, node 11, m
        151     9.20645332336E+000                                                     F               0         Blade 1 X translation displacement, node 12, m
        152    -4.39178733826E+001                                                     F               0         Blade 1 Y translation displacement, node 12, m
        153    -1.06611267090E+002                                                     F               0         Blade 1 Z translation displacement, node 12, m
        154     8.15253067017E+000                                                     F               0         Blade 1 X translation displacement, node 13, m
        155    -4.62183113098E+001                                                     F               0         Blade 1 Y translation displacement, node 13, m
        156    -1.13497901917E+002                                                     F               0         Blade 1 Z translation displacement, node 13, m
        157     7.09861326218E+000                                                     F               0         Blade 1 X translation displacement, node 14, m
        158    -4.85187377930E+001                                                     F               0         Blade 1 Y translation displacement, node 14, m
        159    -1.20384529114E+002                                                     F               0         Blade 1 Z translation displacement, node 14, m
        160     6.04449987411E+000                                                     F               0         Blade 1 X translation displacement, node 15, m
        161    -5.08195877075E+001                                                     F               0         Blade 1 Y translation displacement, node 15, m
        162    -1.27272407532E+002                                                     F               0         Blade 1 Z translation displacement, node 15, m
        163     4.99058151245E+000                                                     F               0         Blade 1 X translation displacement, node 16, m
        164    -5.31200180054E+001                                                     F               0         Blade 1 Y translation displacement, node 16, m
        165    -1.34159042358E+002                                                     F               0         Blade 1 Z translation displacement, node 16, m
        166     3.93665862083E+000                                                     F               0         Blade 1 X translation displacement, node 17, m
        167    -5.54204559326E+001                                                     F               0         Blade 1 Y translation displacement, node 17, m
        168    -1.41045684814E+002                                                     F               0         Blade 1 Z translation displacement, node 17, m
        169     2.88273978233E+000                                                     F               0         Blade 1 X translation displacement, node 18, m
        170    -5.77208862305E+001                                                     F               0         Blade 1 Y translation displacement, node 18, m
        171    -1.47932312012E+002                                                     F               0         Blade 1 Z translation displacement, node 18, m
        172     1.82863283157E+000                                                     F               0         Blade 1 X translation displacement, node 19, m
        173    -6.00217208862E+001                                                     F               0         Blade 1 Y translation displacement, node 19, m
        174    -1.54820159912E+002                                                     F               0         Blade 1 Z translation displacement, node 19, m
        175     7.74709939957E-001                                                     F               0         Blade 1 X translation displacement, node 20, m
        176    -6.23221588135E+001                                                     F               0         Blade 1 Y translation displacement, node 20, m
        177    -1.61706787109E+002                                                     F               0         Blade 1 Z translation displacement, node 20, m
        178    -2.79208779335E-001                                                     F               0         Blade 1 X translation displacement, node 21, m
        179    -6.46225891113E+001                                                     F               0         Blade 1 Y translation displacement, node 21, m
        180    -1.68593429565E+002                                                     F               0         Blade 1 Z translation displacement, node 21, m
        181    -1.33331990242E+000                                                     F               0         Blade 1 X translation displacement, node 22, m
        182    -6.69234390259E+001                                                     F               0         Blade 1 Y translation displacement, node 22, m
        183    -1.75481307983E+002                                                     F               0         Blade 1 Z translation displacement, node 22, m