
Linearized model: Predictions were generated on 13-Feb-2024 at 11:29:37 using OpenFAST, compiled as a 64-bit application using single precision at commit v3.5.1
 linked with  NWTC Subroutine Library; ElastoDyn; InflowWind; AeroDyn; ServoDyn; HydroDyn; MAP++ (<1.20.10>, <Oct-20-2023>)

Description from the FAST input file: CCT-9 Campign 4 model. Input files to be run with OpenFAST 3.5.0. GitHub branch from Lu Wang (https://github.com/luwang00/openfast/tree/dev) compiled on March 7, 2023.

Simulation information:
   Simulation time:                  1214.1500 s
   Rotor Speed:                         0.7917 rad/s
   Azimuth:                             2.6321 rad
   Wind Speed:                         16.0000 m/s
   Number of continuous states:        14
   Number of discrete states:           0
   Number of constraint states:         0
   Number of inputs:                 1890
   Number of outputs:                  25
   Jacobians included in this file?    No

Order of continuous states:
   Row/Column Operating Point                                                   Rotating Frame? Derivative Order Description
   ---------- ---------------                                                   --------------- ---------------- -----------
          1     8.64553165436E+000                                                     F               2         Platform horizontal surge translation DOF (internal DOF index = DOF_Sg), m
          2    -6.18375480175E-001                                                     F               2         Platform horizontal sway translation DOF (internal DOF index = DOF_Sw), m
          3    -1.32203087211E-001                                                     F               2         Platform vertical heave translation DOF (internal DOF index = DOF_Hv), m
          4     5.16562946141E-002                                                     F               2         Platform roll tilt rotation DOF (internal DOF index = DOF_R), rad
          5     1.13038100302E-001                                                     F               2         Platform pitch tilt rotation DOF (internal DOF index = DOF_P), rad
          6     5.21794077940E-004                                                     F               2         Platform yaw rotation DOF (internal DOF index = DOF_Y), rad
          7     1.06125640869E+000                                                     F               2         Variable speed generator DOF (internal DOF index = DOF_GeAz), rad
          8     1.42702323501E-004                                                     F               2         First time derivative of Platform horizontal surge translation DOF (internal DOF index = DOF_Sg), m/s
          9    -7.15028727427E-005                                                     F               2         First time derivative of Platform horizontal sway translation DOF (internal DOF index = DOF_Sw), m/s
         10    -3.51867242716E-003                                                     F               2         First time derivative of Platform vertical heave translation DOF (internal DOF index = DOF_Hv), m/s
         11     1.85967182915E-005                                                     F               2         First time derivative of Platform roll tilt rotation DOF (internal DOF index = DOF_R), rad/s
         12     1.11739518616E-005                                                     F               2         First time derivative of Platform pitch tilt rotation DOF (internal DOF index = DOF_P), rad/s
         13     2.14239344132E-006                                                     F               2         First time derivative of Platform yaw rotation DOF (internal DOF index = DOF_Y), rad/s
         14     7.91716158390E-001                                                     F               2         First time derivative of Variable speed generator DOF (internal DOF index = DOF_GeAz), rad/s

Order of continuous state derivatives:
   Row/Column Operating Point                                                   Rotating Frame? Derivative Order Description
   ---------- ---------------                                                   --------------- ---------------- -----------
          1     1.42702323501E-004                                                     F               2         First time derivative of Platform horizontal surge translation DOF (internal DOF index = DOF_Sg), m/s
          2    -7.15028727427E-005                                                     F               2         First time derivative of Platform horizontal sway translation DOF (internal DOF index = DOF_Sw), m/s
          3    -3.51867242716E-003                                                     F               2         First time derivative of Platform vertical heave translation DOF (internal DOF index = DOF_Hv), m/s
          4     1.85967182915E-005                                                     F               2         First time derivative of Platform roll tilt rotation DOF (internal DOF index = DOF_R), rad/s
          5     1.11739518616E-005                                                     F               2         First time derivative of Platform pitch tilt rotation DOF (internal DOF index = DOF_P), rad/s
          6     2.14239344132E-006                                                     F               2         First time derivative of Platform yaw rotation DOF (internal DOF index = DOF_Y), rad/s
          7     7.91716158390E-001                                                     F               2         First time derivative of Variable speed generator DOF (internal DOF index = DOF_GeAz), rad/s
          8    -1.49071245687E-004                                                     F               2         First time derivative of First time derivative of Platform horizontal surge translation DOF (internal DOF index = DOF_Sg), m/s/s
          9    -2.83096946077E-004                                                     F               2         First time derivative of First time derivative of Platform horizontal sway translation DOF (internal DOF index = DOF_Sw), m/s/s
         10    -2.16848542914E-003                                                     F               2         First time derivative of First time derivative of Platform vertical heave translation DOF (internal DOF index = DOF_Hv), m/s/s
         11     2.85953119601E-005                                                     F               2         First time derivative of First time derivative of Platform roll tilt rotation DOF (internal DOF index = DOF_R), rad/s/s
         12    -1.32411660161E-005                                                     F               2         First time derivative of First time derivative of Platform pitch tilt rotation DOF (internal DOF index = DOF_P), rad/s/s
         13     1.69325139723E-005                                                     F               2         First time derivative of First time derivative of Platform yaw rotation DOF (internal DOF index = DOF_Y), rad/s/s
         14     2.78442585113E-005                                                     F               2         First time derivative of First time derivative of Variable speed generator DOF (internal DOF index = DOF_GeAz), rad/s/s

Order of inputs:
     Column   Operating Point                                                   Rotating Frame? Derivative Order Description
   ---------- ---------------                                                   --------------- ---------------- -----------
          1     1.85541549683E+002                                                     F               0         Blade 1 X force, node 1, N
          2    -1.15863418579E+002                                                     F               0         Blade 1 Y force, node 1, N
          3     1.85011043549E+001                                                     F               0         Blade 1 Z force, node 1, N
          4     7.52695129395E+002                                                     F               0         Blade 1 X force, node 2, N
          5    -1.87068359375E+002                                                     F               0         Blade 1 Y force, node 2, N
          6    -6.79731369019E+001                                                     F               0         Blade 1 Z force, node 2, N
          7     9.41784973145E+002                                                     F               0         Blade 1 X force, node 3, N
          8     5.77090072632E+000                                                     F               0         Blade 1 Y force, node 3, N
          9    -2.06277633667E+002                                                     F               0         Blade 1 Z force, node 3, N
         10     1.21101904297E+003                                                     F               0         Blade 1 X force, node 4, N
         11     1.76900146484E+002                                                     F               0         Blade 1 Y force, node 4, N
         12    -3.50914031982E+002                                                     F               0         Blade 1 Z force, node 4, N
         13     1.48026416016E+003                                                     F               0         Blade 1 X force, node 5, N
         14     3.48032379150E+002                                                     F               0         Blade 1 Y force, node 5, N
         15    -4.95554382324E+002                                                     F               0         Blade 1 Z force, node 5, N
         16     1.74950122070E+003                                                     F               0         Blade 1 X force, node 6, N
         17     5.19163452148E+002                                                     F               0         Blade 1 Y force, node 6, N
         18    -6.40192382812E+002                                                     F               0         Blade 1 Z force, node 6, N
         19     2.01872485352E+003                                                     F               0         Blade 1 X force, node 7, N
         20     6.90289978027E+002                                                     F               0         Blade 1 Y force, node 7, N
         21    -7.84825073242E+002                                                     F               0         Blade 1 Z force, node 7, N
         22     2.28795874023E+003                                                     F               0         Blade 1 X force, node 8, N
         23     8.61419189453E+002                                                     F               0         Blade 1 Y force, node 8, N
         24    -9.29461547852E+002                                                     F               0         Blade 1 Z force, node 8, N
         25     2.55719311523E+003                                                     F               0         Blade 1 X force, node 9, N
         26     1.03254858398E+003                                                     F               0         Blade 1 Y force, node 9, N
         27    -1.07409802246E+003                                                     F               0         Blade 1 Z force, node 9, N
         28     2.82642724609E+003                                                     F               0         Blade 1 X force, node 10, N
         29     1.20367761230E+003                                                     F               0         Blade 1 Y force, node 10, N
         30    -1.21873437500E+003                                                     F               0         Blade 1 Z force, node 10, N
         31     3.09566113281E+003                                                     F               0         Blade 1 X force, node 11, N
         32     1.37480676270E+003                                                     F               0         Blade 1 Y force, node 11, N
         33    -1.36337072754E+003                                                     F               0         Blade 1 Z force, node 11, N
         34     3.36491894531E+003                                                     F               0         Blade 1 X force, node 12, N
         35     1.54594714355E+003                                                     F               0         Blade 1 Y force, node 12, N
         36    -1.50801782227E+003                                                     F               0         Blade 1 Z force, node 12, N
         37     3.63415576172E+003                                                     F               0         Blade 1 X force, node 13, N
         38     1.71707812500E+003                                                     F               0         Blade 1 Y force, node 13, N
         39    -1.65265588379E+003                                                     F               0         Blade 1 Z force, node 13, N
         40     3.90336694336E+003                                                     F               0         Blade 1 X force, node 14, N
         41     1.88819702148E+003                                                     F               0         Blade 1 Y force, node 14, N
         42    -1.79728210449E+003                                                     F               0         Blade 1 Z force, node 14, N
         43     4.17262890625E+003                                                     F               0         Blade 1 X force, node 15, N
         44     2.05934008789E+003                                                     F               0         Blade 1 Y force, node 15, N
         45    -1.94193151855E+003                                                     F               0         Blade 1 Z force, node 15, N
         46     4.44183447266E+003                                                     F               0         Blade 1 X force, node 16, N
         47     2.23045483398E+003                                                     F               0         Blade 1 Y force, node 16, N
         48    -2.08655444336E+003                                                     F               0         Blade 1 Z force, node 16, N
         49     5.45806103516E+003                                                     F               0         Blade 1 X force, node 17, N
         50     2.77562329102E+003                                                     F               0         Blade 1 Y force, node 17, N
         51    -2.58155468750E+003                                                     F               0         Blade 1 Z force, node 17, N
         52     4.12988867188E+003                                                     F               0         Blade 1 X force, node 18, N
         53     2.05964526367E+003                                                     F               0         Blade 1 Y force, node 18, N
         54    -1.93285668945E+003                                                     F               0         Blade 1 Z force, node 18, N
         55     5.01559619141E+003                                                     F               0         Blade 1 X force, node 19, N
         56     2.42927392578E+003                                                     F               0         Blade 1 Y force, node 19, N
         57    -2.31094409180E+003                                                     F               0         Blade 1 Z force, node 19, N
         58     4.23505224609E+003                                                     F               0         Blade 1 X force, node 20, N
         59     1.99386926270E+003                                                     F               0         Blade 1 Y force, node 20, N
         60    -1.92231713867E+003                                                     F               0         Blade 1 Z force, node 20, N
         61     6.18164794922E+003                                                     F               0         Blade 1 X force, node 21, N
         62     2.81638037109E+003                                                     F               0         Blade 1 Y force, node 21, N
         63    -2.75840063477E+003                                                     F               0         Blade 1 Z force, node 21, N
         64     5.38730126953E+003                                                     F               0         Blade 1 X force, node 22, N
         65     2.37639990234E+003                                                     F               0         Blade 1 Y force, node 22, N
         66    -2.36448046875E+003                                                     F               0         Blade 1 Z force, node 22, N
         67     5.47069238281E+003                                                     F               0         Blade 1 X force, node 23, N
         68     2.34247583008E+003                                                     F               0         Blade 1 Y force, node 23, N
         69    -2.36533959961E+003                                                     F               0         Blade 1 Z force, node 23, N
         70     5.64651708984E+003                                                     F               0         Blade 1 X force, node 24, N
         71     2.34773461914E+003                                                     F               0         Blade 1 Y force, node 24, N
         72    -2.40596411133E+003                                                     F               0         Blade 1 Z force, node 24, N
         73     5.70528466797E+003                                                     F               0         Blade 1 X force, node 25, N
         74     2.30529760742E+003                                                     F               0         Blade 1 Y force, node 25, N
         75    -2.39720312500E+003                                                     F               0         Blade 1 Z force, node 25, N
         76     5.79178710938E+003                                                     F               0         Blade 1 X force, node 26, N
         77     2.27485473633E+003                                                     F               0         Blade 1 Y force, node 26, N
         78    -2.40049389648E+003                                                     F               0         Blade 1 Z force, node 26, N
         79     6.83928271484E+003                                                     F               0         Blade 1 X force, node 27, N
         80     2.60702758789E+003                                                     F               0         Blade 1 Y force, node 27, N
         81    -2.79458349609E+003                                                     F               0         Blade 1 Z force, node 27, N
         82     4.99251464844E+003                                                     F               0         Blade 1 X force, node 28, N
         83     1.84950903320E+003                                                     F               0         Blade 1 Y force, node 28, N
         84    -2.01290722656E+003                                                     F               0         Blade 1 Z force, node 28, N
         85     6.02572851562E+003                                                     F               0         Blade 1 X force, node 29, N
         86     2.17940576172E+003                                                     F               0         Blade 1 Y force, node 29, N
         87    -2.40276245117E+003                                                     F               0         Blade 1 Z force, node 29, N
         88     5.06050390625E+003                                                     F               0         Blade 1 X force, node 30, N
         89     1.78703125000E+003                                                     F               0         Blade 1 Y force, node 30, N
         90    -1.99600781250E+003                                                     F               0         Blade 1 Z force, node 30, N
         91     7.19993945312E+003                                                     F               0         Blade 1 X force, node 31, N
         92     2.47286474609E+003                                                     F               0         Blade 1 Y force, node 31, N
         93    -2.80464526367E+003                                                     F               0         Blade 1 Z force, node 31, N
         94     6.22362060547E+003                                                     F               0         Blade 1 X force, node 32, N
         95     2.08009130859E+003                                                     F               0         Blade 1 Y force, node 32, N
         96    -2.39529321289E+003                                                     F               0         Blade 1 Z force, node 32, N
         97     6.28219775391E+003                                                     F               0         Blade 1 X force, node 33, N
         98     2.04646850586E+003                                                     F               0         Blade 1 Y force, node 33, N
         99    -2.39094653320E+003                                                     F               0         Blade 1 Z force, node 33, N
        100     6.33880566406E+003                                                     F               0         Blade 1 X force, node 34, N
        101     2.01284082031E+003                                                     F               0         Blade 1 Y force, node 34, N
        102    -2.38617211914E+003                                                     F               0         Blade 1 Z force, node 34, N
        103     6.38108886719E+003                                                     F               0         Blade 1 X force, node 35, N
        104     1.97709826660E+003                                                     F               0         Blade 1 Y force, node 35, N
        105    -2.37723583984E+003                                                     F               0         Blade 1 Z force, node 35, N
        106     6.41809472656E+003                                                     F               0         Blade 1 X force, node 36, N
        107     1.94029968262E+003                                                     F               0         Blade 1 Y force, node 36, N
        108    -2.36662597656E+003                                                     F               0         Blade 1 Z force, node 36, N
        109     7.54453662109E+003                                                     F               0         Blade 1 X force, node 37, N
        110     2.22144653320E+003                                                     F               0         Blade 1 Y force, node 37, N
        111    -2.75197070312E+003                                                     F               0         Blade 1 Z force, node 37, N
        112     5.39537304688E+003                                                     F               0         Blade 1 X force, node 38, N
        113     1.54906799316E+003                                                     F               0         Blade 1 Y force, node 38, N
        114    -1.94803344727E+003                                                     F               0         Blade 1 Z force, node 38, N
        115     6.50893945312E+003                                                     F               0         Blade 1 X force, node 39, N
        116     1.82958935547E+003                                                     F               0         Blade 1 Y force, node 39, N
        117    -2.33028173828E+003                                                     F               0         Blade 1 Z force, node 39, N
        118     5.46468554688E+003                                                     F               0         Blade 1 X force, node 40, N
        119     1.50324523926E+003                                                     F               0         Blade 1 Y force, node 40, N
        120    -1.93983825684E+003                                                     F               0         Blade 1 Z force, node 40, N
        121     7.62166845703E+003                                                     F               0         Blade 1 X force, node 41, N
        122     2.04453796387E+003                                                     F               0         Blade 1 Y force, node 41, N
        123    -2.67920385742E+003                                                     F               0         Blade 1 Z force, node 41, N
        124     6.56787646484E+003                                                     F               0         Blade 1 X force, node 42, N
        125     1.71887841797E+003                                                     F               0         Blade 1 Y force, node 42, N
        126    -2.28704711914E+003                                                     F               0         Blade 1 Z force, node 42, N
        127     6.58180615234E+003                                                     F               0         Blade 1 X force, node 43, N
        128     1.68235961914E+003                                                     F               0         Blade 1 Y force, node 43, N
        129    -2.27159594727E+003                                                     F               0         Blade 1 Z force, node 43, N
        130     6.62796630859E+003                                                     F               0         Blade 1 X force, node 44, N
        131     1.65431323242E+003                                                     F               0         Blade 1 Y force, node 44, N
        132    -2.26738647461E+003                                                     F               0         Blade 1 Z force, node 44, N
        133     6.55974511719E+003                                                     F               0         Blade 1 X force, node 45, N
        134     1.59997131348E+003                                                     F               0         Blade 1 Y force, node 45, N
        135    -2.22518750000E+003                                                     F               0         Blade 1 Z force, node 45, N
        136     6.59304638672E+003                                                     F               0         Blade 1 X force, node 46, N
        137     1.57129345703E+003                                                     F               0         Blade 1 Y force, node 46, N
        138    -2.21788232422E+003                                                     F               0         Blade 1 Z force, node 46, N
        139     7.73787255859E+003                                                     F               0         Blade 1 X force, node 47, N
        140     1.79808886719E+003                                                     F               0         Blade 1 Y force, node 47, N
        141    -2.57972387695E+003                                                     F               0         Blade 1 Z force, node 47, N
        142     5.43625585938E+003                                                     F               0         Blade 1 X force, node 48, N
        143     1.23289819336E+003                                                     F               0         Blade 1 Y force, node 48, N
        144    -1.79704760742E+003                                                     F               0         Blade 1 Z force, node 48, N
        145     6.57057519531E+003                                                     F               0         Blade 1 X force, node 49, N
        146     1.45996032715E+003                                                     F               0         Blade 1 Y force, node 49, N
        147    -2.15675512695E+003                                                     F               0         Blade 1 Z force, node 49, N
        148     5.52623437500E+003                                                     F               0         Blade 1 X force, node 50, N
        149     1.20211499023E+003                                                     F               0         Blade 1 Y force, node 50, N
        150    -1.80091662598E+003                                                     F               0         Blade 1 Z force, node 50, N
        151     7.57609130859E+003                                                     F               0         Blade 1 X force, node 51, N
        152     1.60762231445E+003                                                     F               0         Blade 1 Y force, node 51, N
        153    -2.44851513672E+003                                                     F               0         Blade 1 Z force, node 51, N
        154     6.52801757812E+003                                                     F               0         Blade 1 X force, node 52, N
        155     1.35166430664E+003                                                     F               0         Blade 1 Y force, node 52, N
        156    -2.09282519531E+003                                                     F               0         Blade 1 Z force, node 52, N
        157     6.51146582031E+003                                                     F               0         Blade 1 X force, node 53, N
        158     1.31666333008E+003                                                     F               0         Blade 1 Y force, node 53, N