
Linearized model: Predictions were generated on 31-Jan-2024 at 12:35:17 using OpenFAST, compiled as a 64-bit application using single precision at commit v3.5.1
 linked with  NWTC Subroutine Library; ElastoDyn; InflowWind; AeroDyn; ServoDyn; HydroDyn; MAP++ (<1.20.10>, <Oct-20-2023>)

Description from the FAST input file: CCT-9 Campign 4 model. Input files to be run with OpenFAST 3.5.0. GitHub branch from Lu Wang (https://github.com/luwang00/openfast/tree/dev) compiled on March 7, 2023.

Simulation information:
   Simulation time:                   503.7250 s
   Rotor Speed:                         0.8939 rad/s
   Azimuth:                             4.0753 rad
   Wind Speed:                         10.0000 m/s
   Number of continuous states:         0
   Number of discrete states:           0
   Number of constraint states:         0
   Number of inputs:                  303
   Number of outputs:                   1
   Jacobians included in this file?    No

Order of inputs:
     Column   Operating Point                     Rotating Frame? Derivative Order Description
   ---------- ---------------                     --------------- ---------------- -----------
          1   -1.080E+01                                 F               0         X-component position of node 1 (hub), m
          2    0.000E+00                                 F               0         Y-component position of node 1 (hub), m
          3    1.497E+02                                 F               0         Z-component position of node 1 (hub), m
          4    1.456E-01                                 F               0         X-component position of node 2 (blade 1, node 1), m
          5   -2.512E+00                                 F               0         Y-component position of node 2 (blade 1, node 1), m
          6    1.467E+02                                 F               0         Z-component position of node 2 (blade 1, node 1), m
          7    3.722E-02                                 F               0         X-component position of node 3 (blade 1, node 2), m
          8   -1.407E+00                                 F               0         Y-component position of node 3 (blade 1, node 2), m
          9    1.459E+02                                 F               0         Z-component position of node 3 (blade 1, node 2), m
         10   -1.436E+00                                 F               0         X-component position of node 4 (blade 1, node 3), m
         11    1.362E+01                                 F               0         Y-component position of node 4 (blade 1, node 3), m
         12    1.359E+02                                 F               0         Z-component position of node 4 (blade 1, node 3), m
         13   -1.750E+00                                 F               0         X-component position of node 5 (blade 1, node 4), m
         14    1.683E+01                                 F               0         Y-component position of node 5 (blade 1, node 4), m
         15    1.337E+02                                 F               0         Z-component position of node 5 (blade 1, node 4), m
         16   -2.064E+00                                 F               0         X-component position of node 6 (blade 1, node 5), m
         17    2.003E+01                                 F               0         Y-component position of node 6 (blade 1, node 5), m
         18    1.316E+02                                 F               0         Z-component position of node 6 (blade 1, node 5), m
         19   -2.378E+00                                 F               0         X-component position of node 7 (blade 1, node 6), m
         20    2.323E+01                                 F               0         Y-component position of node 7 (blade 1, node 6), m
         21    1.294E+02                                 F               0         Z-component position of node 7 (blade 1, node 6), m
         22   -2.692E+00                                 F               0         X-component position of node 8 (blade 1, node 7), m
         23    2.644E+01                                 F               0         Y-component position of node 8 (blade 1, node 7), m
         24    1.273E+02                                 F               0         Z-component position of node 8 (blade 1, node 7), m
         25   -3.006E+00                                 F               0         X-component position of node 9 (blade 1, node 8), m
         26    2.964E+01                                 F               0         Y-component position of node 9 (blade 1, node 8), m
         27    1.251E+02                                 F               0         Z-component position of node 9 (blade 1, node 8), m
         28   -3.320E+00                                 F               0         X-component position of node 10 (blade 1, node 9), m
         29    3.284E+01                                 F               0         Y-component position of node 10 (blade 1, node 9), m
         30    1.230E+02                                 F               0         Z-component position of node 10 (blade 1, node 9), m
         31   -3.634E+00                                 F               0         X-component position of node 11 (blade 1, node 10), m
         32    3.604E+01                                 F               0         Y-component position of node 11 (blade 1, node 10), m
         33    1.208E+02                                 F               0         Z-component position of node 11 (blade 1, node 10), m
         34   -3.948E+00                                 F               0         X-component position of node 12 (blade 1, node 11), m
         35    3.925E+01                                 F               0         Y-component position of node 12 (blade 1, node 11), m
         36    1.187E+02                                 F               0         Z-component position of node 12 (blade 1, node 11), m
         37   -4.262E+00                                 F               0         X-component position of node 13 (blade 1, node 12), m
         38    4.245E+01                                 F               0         Y-component position of node 13 (blade 1, node 12), m
         39    1.166E+02                                 F               0         Z-component position of node 13 (blade 1, node 12), m
         40   -4.576E+00                                 F               0         X-component position of node 14 (blade 1, node 13), m
         41    4.565E+01                                 F               0         Y-component position of node 14 (blade 1, node 13), m
         42    1.144E+02                                 F               0         Z-component position of node 14 (blade 1, node 13), m
         43   -4.890E+00                                 F               0         X-component position of node 15 (blade 1, node 14), m
         44    4.885E+01                                 F               0         Y-component position of node 15 (blade 1, node 14), m
         45    1.123E+02                                 F               0         Z-component position of node 15 (blade 1, node 14), m
         46   -5.204E+00                                 F               0         X-component position of node 16 (blade 1, node 15), m
         47    5.206E+01                                 F               0         Y-component position of node 16 (blade 1, node 15), m
         48    1.101E+02                                 F               0         Z-component position of node 16 (blade 1, node 15), m
         49   -5.518E+00                                 F               0         X-component position of node 17 (blade 1, node 16), m
         50    5.526E+01                                 F               0         Y-component position of node 17 (blade 1, node 16), m
         51    1.080E+02                                 F               0         Z-component position of node 17 (blade 1, node 16), m
         52   -5.832E+00                                 F               0         X-component position of node 18 (blade 1, node 17), m
         53    5.846E+01                                 F               0         Y-component position of node 18 (blade 1, node 17), m
         54    1.058E+02                                 F               0         Z-component position of node 18 (blade 1, node 17), m
         55   -6.146E+00                                 F               0         X-component position of node 19 (blade 1, node 18), m
         56    6.167E+01                                 F               0         Y-component position of node 19 (blade 1, node 18), m
         57    1.037E+02                                 F               0         Z-component position of node 19 (blade 1, node 18), m
         58   -6.460E+00                                 F               0         X-component position of node 20 (blade 1, node 19), m
         59    6.487E+01                                 F               0         Y-component position of node 20 (blade 1, node 19), m
         60    1.015E+02                                 F               0         Z-component position of node 20 (blade 1, node 19), m
         61   -6.774E+00                                 F               0         X-component position of node 21 (blade 1, node 20), m
         62    6.807E+01                                 F               0         Y-component position of node 21 (blade 1, node 20), m
         63    9.939E+01                                 F               0         Z-component position of node 21 (blade 1, node 20), m
         64   -7.088E+00                                 F               0         X-component position of node 22 (blade 1, node 21), m
         65    7.127E+01                                 F               0         Y-component position of node 22 (blade 1, node 21), m
         66    9.725E+01                                 F               0         Z-component position of node 22 (blade 1, node 21), m
         67   -7.402E+00                                 F               0         X-component position of node 23 (blade 1, node 22), m
         68    7.448E+01                                 F               0         Y-component position of node 23 (blade 1, node 22), m
         69    9.510E+01                                 F               0         Z-component position of node 23 (blade 1, node 22), m
         70   -7.716E+00                                 F               0         X-component position of node 24 (blade 1, node 23), m
         71    7.768E+01                                 F               0         Y-component position of node 24 (blade 1, node 23), m
         72    9.296E+01                                 F               0         Z-component position of node 24 (blade 1, node 23), m
         73   -8.030E+00                                 F               0         X-component position of node 25 (blade 1, node 24), m
         74    8.088E+01                                 F               0         Y-component position of node 25 (blade 1, node 24), m
         75    9.081E+01                                 F               0         Z-component position of node 25 (blade 1, node 24), m
         76   -8.344E+00                                 F               0         X-component position of node 26 (blade 1, node 25), m
         77    8.408E+01                                 F               0         Y-component position of node 26 (blade 1, node 25), m
         78    8.867E+01                                 F               0         Z-component position of node 26 (blade 1, node 25), m
         79   -8.658E+00                                 F               0         X-component position of node 27 (blade 1, node 26), m
         80    8.729E+01                                 F               0         Y-component position of node 27 (blade 1, node 26), m
         81    8.652E+01                                 F               0         Z-component position of node 27 (blade 1, node 26), m
         82   -8.972E+00                                 F               0         X-component position of node 28 (blade 1, node 27), m
         83    9.049E+01                                 F               0         Y-component position of node 28 (blade 1, node 27), m
         84    8.437E+01                                 F               0         Z-component position of node 28 (blade 1, node 27), m
         85   -9.238E+00                                 F               0         X-component position of node 29 (blade 1, node 28), m
         86    9.320E+01                                 F               0         Y-component position of node 29 (blade 1, node 28), m
         87    8.256E+01                                 F               0         Z-component position of node 29 (blade 1, node 28), m
         88    1.293E+00                                 F               0         X-component position of node 30 (blade 2, node 1), m
         89   -6.704E+00                                 F               0         Y-component position of node 30 (blade 2, node 1), m
         90    1.552E+02                                 F               0         Z-component position of node 30 (blade 2, node 1), m
         91    1.461E+00                                 F               0         X-component position of node 31 (blade 2, node 2), m
         92   -6.609E+00                                 F               0         Y-component position of node 31 (blade 2, node 2), m
         93    1.566E+02                                 F               0         Z-component position of node 31 (blade 2, node 2), m
         94    3.745E+00                                 F               0         X-component position of node 32 (blade 2, node 3), m
         95   -5.314E+00                                 F               0         Y-component position of node 32 (blade 2, node 3), m
         96    1.745E+02                                 F               0         Z-component position of node 32 (blade 2, node 3), m
         97    4.232E+00                                 F               0         X-component position of node 33 (blade 2, node 4), m
         98   -5.038E+00                                 F               0         Y-component position of node 33 (blade 2, node 4), m
         99    1.783E+02                                 F               0         Z-component position of node 33 (blade 2, node 4), m
        100    4.719E+00                                 F               0         X-component position of node 34 (blade 2, node 5), m
        101   -4.761E+00                                 F               0         Y-component position of node 34 (blade 2, node 5), m
        102    1.822E+02                                 F               0         Z-component position of node 34 (blade 2, node 5), m
        103    5.205E+00                                 F               0         X-component position of node 35 (blade 2, node 6), m
        104   -4.485E+00                                 F               0         Y-component position of node 35 (blade 2, node 6), m
        105    1.860E+02                                 F               0         Z-component position of node 35 (blade 2, node 6), m
        106    5.692E+00                                 F               0         X-component position of node 36 (blade 2, node 7), m
        107   -4.209E+00                                 F               0         Y-component position of node 36 (blade 2, node 7), m
        108    1.898E+02                                 F               0         Z-component position of node 36 (blade 2, node 7), m
        109    6.179E+00                                 F               0         X-component position of node 37 (blade 2, node 8), m
        110   -3.933E+00                                 F               0         Y-component position of node 37 (blade 2, node 8), m
        111    1.936E+02                                 F               0         Z-component position of node 37 (blade 2, node 8), m
        112    6.666E+00                                 F               0         X-component position of node 38 (blade 2, node 9), m
        113   -3.657E+00                                 F               0         Y-component position of node 38 (blade 2, node 9), m
        114    1.975E+02                                 F               0         Z-component position of node 38 (blade 2, node 9), m
        115    7.152E+00                                 F               0         X-component position of node 39 (blade 2, node 10), m
        116   -3.381E+00                                 F               0         Y-component position of node 39 (blade 2, node 10), m
        117    2.013E+02                                 F               0         Z-component position of node 39 (blade 2, node 10), m
        118    7.639E+00                                 F               0         X-component position of node 40 (blade 2, node 11), m
        119   -3.105E+00                                 F               0         Y-component position of node 40 (blade 2, node 11), m
        120    2.051E+02                                 F               0         Z-component position of node 40 (blade 2, node 11), m
        121    8.126E+00                                 F               0         X-component position of node 41 (blade 2, node 12), m
        122   -2.829E+00                                 F               0         Y-component position of node 41 (blade 2, node 12), m
        123    2.090E+02                                 F               0         Z-component position of node 41 (blade 2, node 12), m
        124    8.613E+00                                 F               0         X-component position of node 42 (blade 2, node 13), m
        125   -2.553E+00                                 F               0         Y-component position of node 42 (blade 2, node 13), m
        126    2.128E+02                                 F               0         Z-component position of node 42 (blade 2, node 13), m
        127    9.099E+00                                 F               0         X-component position of node 43 (blade 2, node 14), m
        128   -2.277E+00                                 F               0         Y-component position of node 43 (blade 2, node 14), m
        129    2.166E+02                                 F               0         Z-component position of node 43 (blade 2, node 14), m
        130    9.586E+00                                 F               0         X-component position of node 44 (blade 2, node 15), m
        131   -2.001E+00                                 F               0         Y-component position of node 44 (blade 2, node 15), m
        132    2.204E+02                                 F               0         Z-component position of node 44 (blade 2, node 15), m
        133    1.007E+01                                 F               0         X-component position of node 45 (blade 2, node 16), m
        134   -1.725E+00                                 F               0         Y-component position of node 45 (blade 2, node 16), m
        135    2.243E+02                                 F               0         Z-component position of node 45 (blade 2, node 16), m
        136    1.056E+01                                 F               0         X-component position of node 46 (blade 2, node 17), m
        137   -1.449E+00                                 F               0         Y-component position of node 46 (blade 2, node 17), m
        138    2.281E+02                                 F               0         Z-component position of node 46 (blade 2, node 17), m
        139    1.105E+01                                 F               0         X-component position of node 47 (blade 2, node 18), m
        140   -1.173E+00                                 F               0         Y-component position of node 47 (blade 2, node 18), m
        141    2.319E+02                                 F               0         Z-component position of node 47 (blade 2, node 18), m
        142    1.153E+01                                 F               0         X-component position of node 48 (blade 2, node 19), m
        143   -8.969E-01                                 F               0         Y-component position of node 48 (blade 2, node 19), m
        144    2.357E+02                                 F               0         Z-component position of node 48 (blade 2, node 19), m
        145    1.202E+01                                 F               0         X-component position of node 49 (blade 2, node 20), m
        146   -6.209E-01                                 F               0         Y-component position of node 49 (blade 2, node 20), m
        147    2.396E+02                                 F               0         Z-component position of node 49 (blade 2, node 20), m
        148    1.251E+01                                 F               0         X-component position of node 50 (blade 2, node 21), m
        149   -3.448E-01                                 F               0         Y-component position of node 50 (blade 2, node 21), m
        150    2.434E+02                                 F               0         Z-component position of node 50 (blade 2, node 21), m
        151    1.299E+01                                 F               0         X-component position of node 51 (blade 2, node 22), m
        152   -6.875E-02                                 F               0         Y-component position of node 51 (blade 2, node 22), m
        153    2.472E+02                                 F               0         Z-component position of node 51 (blade 2, node 22), m
        154    1.348E+01                                 F               0         X-component position of node 52 (blade 2, node 23), m
        155    2.073E-01                                 F               0         Y-component position of node 52 (blade 2, node 23), m
        156    2.511E+02                                 F               0         Z-component position of node 52 (blade 2, node 23), m
        157    1.397E+01                                 F               0         X-component position of node 53 (blade 2, node 24), m
        158    4.833E-01                                 F               0         Y-component position of node 53 (blade 2, node 24), m
        159    2.549E+02                                 F               0         Z-component position of node 53 (blade 2, node 24), m
        160    1.445E+01                                 F               0         X-component position of node 54 (blade 2, node 25), m
        161    7.593E-01                                 F               0         Y-component position of node 54 (blade 2, node 25), m
        162    2.587E+02                                 F               0         Z-component position of node 54 (blade 2, node 25), m
        163    1.494E+01                                 F               0         X-component position of node 55 (blade 2, node 26), m
        164    1.035E+00                                 F               0         Y-component position of node 55 (blade 2, node 26), m
        165    2.625E+02                                 F               0         Z-component position of node 55 (blade 2, node 26), m
        166    1.543E+01                                 F               0         X-component position of node 56 (blade 2, node 27), m
        167    1.311E+00                                 F               0         Y-component position of node 56 (blade 2, node 27), m
        168    2.664E+02                                 F               0         Z-component position of node 56 (blade 2, node 27), m
        169    1.584E+01                                 F               0         X-component position of node 57 (blade 2, node 28), m
        170    1.545E+00                                 F               0         Y-component position of node 57 (blade 2, node 28), m
        171    2.696E+02                                 F               0         Z-component position of node 57 (blade 2, node 28), m
        172    3.478E-01                                 F               0         X-component position of node 58 (blade 3, node 1), m
        173   -1.208E+01                                 F               0         Y-component position of node 58 (blade 3, node 1), m
        174    1.473E+02                                 F               0         Z-component position of node 58 (blade 3, node 1), m
        175    2.882E-01                                 F               0         X-component position of node 59 (blade 3, node 2), m
        176   -1.328E+01                                 F               0         Y-component position of node 59 (blade 3, node 2), m
        177    1.468E+02                                 F               0         Z-component position of node 59 (blade 3, node 2), m
        178   -5.227E-01                                 F               0         X-component position of node 60 (blade 3, node 3), m
        179   -2.961E+01                                 F               0         Y-component position of node 60 (blade 3, node 3), m
        180    1.389E+02                                 F               0         Z-component position of node 60 (blade 3, node 3), m
        181   -6.955E-01                                 F               0         X-component position of node 61 (blade 3, node 4), m
        182   -3.309E+01                                 F               0         Y-component position of node 61 (blade 3, node 4), m
        183    1.372E+02                                 F               0         Z-component position of node 61 (blade 3, node 4), m
        184   -8.683E-01                                 F               0         X-component position of node 62 (blade 3, node 5), m
        185   -3.657E+01                                 F               0         Y-component position of node 62 (blade 3, node 5), m
        186    1.355E+02                                 F               0         Z-component position of node 62 (blade 3, node 5), m
        187   -1.041E+00                                 F               0         X-component position of node 63 (blade 3, node 6), m
        188   -4.005E+01                                 F               0         Y-component position of node 63 (blade 3, node 6), m
        189    1.338E+02                                 F               0         Z-component position of node 63 (blade 3, node 6), m
        190   -1.214E+00                                 F               0         X-component position of node 64 (blade 3, node 7), m
        191   -4.353E+01                                 F               0         Y-component position of node 64 (blade 3, node 7), m
        192    1.321E+02                                 F               0         Z-component position of node 64 (blade 3, node 7), m
        193   -1.387E+00                                 F               0         X-component position of node 65 (blade 3, node 8), m
        194   -4.700E+01                                 F               0         Y-component position of node 65 (blade 3, node 8), m
        195    1.305E+02                                 F               0         Z-component position of node 65 (blade 3, node 8), m
        196   -1.559E+00                                 F               0         X-component position of node 66 (blade 3, node 9), m
        197   -5.048E+01                                 F               0         Y-component position of node 66 (blade 3, node 9), m
        198    1.288E+02                                 F               0         Z-component position of node 66 (blade 3, node 9), m
        199   -1.732E+00                                 F               0         X-component position of node 67 (blade 3, node 10), m
        200   -5.396E+01                                 F               0         Y-component position of node 67 (blade 3, node 10), m
        201    1.271E+02                                 F               0         Z-component position of node 67 (blade 3, node 10), m
        202   -1.905E+00                                 F               0         X-component position of node 68 (blade 3, node 11), m
        203   -5.744E+01                                 F               0         Y-component position of node 68 (blade 3, node 11), m
        204    1.254E+02                                 F               0         Z-component position of node 68 (blade 3, node 11), m
        205   -2.078E+00                                 F               0         X-component position of node 69 (blade 3, node 12), m
        206   -6.092E+01                                 F               0         Y-component position of node 69 (blade 3, node 12), m
        207    1.237E+02                                 F               0         Z-component position of node 69 (blade 3, node 12), m
        208   -2.250E+00                                 F               0         X-component position of node 70 (blade 3, node 13), m
        209   -6.440E+01                                 F               0         Y-component position of node 70 (blade 3, node 13), m
        210    1.221E+02                                 F               0         Z-component position of node 70 (blade 3, node 13), m
        211   -2.423E+00                                 F               0         X-component position of node 71 (blade 3, node 14), m