
Linearized model: Predictions were generated on 31-Jan-2024 at 12:35:17 using OpenFAST, compiled as a 64-bit application using single precision at commit v3.5.1
 linked with  NWTC Subroutine Library; ElastoDyn; InflowWind; AeroDyn; ServoDyn; HydroDyn; MAP++ (<1.20.10>, <Oct-20-2023>)

Description from the FAST input file: CCT-9 Campign 4 model. Input files to be run with OpenFAST 3.5.0. GitHub branch from Lu Wang (https://github.com/luwang00/openfast/tree/dev) compiled on March 7, 2023.

Simulation information:
   Simulation time:                   502.4750 s
   Rotor Speed:                         0.8938 rad/s
   Azimuth:                             2.9579 rad
   Wind Speed:                         10.0000 m/s
   Number of continuous states:        12
   Number of discrete states:           0
   Number of constraint states:         0
   Number of inputs:                 1890
   Number of outputs:                  19
   Jacobians included in this file?    No

Order of continuous states:
   Row/Column Operating Point                     Rotating Frame? Derivative Order Description
   ---------- ---------------                     --------------- ---------------- -----------
          1    8.172E+00                                 F               2         Platform horizontal surge translation DOF (internal DOF index = DOF_Sg), m
          2   -5.494E-02                                 F               2         Platform vertical heave translation DOF (internal DOF index = DOF_Hv), m
          3    7.093E-03                                 F               2         Platform yaw rotation DOF (internal DOF index = DOF_Y), rad
          4    3.846E-01                                 F               2         1st tower fore-aft bending mode DOF (internal DOF index = DOF_TFA1), m
          5    1.289E-03                                 F               2         2nd tower fore-aft bending mode DOF (internal DOF index = DOF_TFA2), m
          6    1.387E+00                                 F               2         Variable speed generator DOF (internal DOF index = DOF_GeAz), rad
          7   -7.142E-04                                 F               2         First time derivative of Platform horizontal surge translation DOF (internal DOF index = DOF_Sg), m/s
          8   -4.541E-03                                 F               2         First time derivative of Platform vertical heave translation DOF (internal DOF index = DOF_Hv), m/s
          9    3.262E-06                                 F               2         First time derivative of Platform yaw rotation DOF (internal DOF index = DOF_Y), rad/s
         10   -9.526E-04                                 F               2         First time derivative of 1st tower fore-aft bending mode DOF (internal DOF index = DOF_TFA1), m/s
         11    2.191E-06                                 F               2         First time derivative of 2nd tower fore-aft bending mode DOF (internal DOF index = DOF_TFA2), m/s
         12    8.938E-01                                 F               2         First time derivative of Variable speed generator DOF (internal DOF index = DOF_GeAz), rad/s

Order of continuous state derivatives:
   Row/Column Operating Point                     Rotating Frame? Derivative Order Description
   ---------- ---------------                     --------------- ---------------- -----------
          1   -7.142E-04                                 F               2         First time derivative of Platform horizontal surge translation DOF (internal DOF index = DOF_Sg), m/s
          2   -4.541E-03                                 F               2         First time derivative of Platform vertical heave translation DOF (internal DOF index = DOF_Hv), m/s
          3    3.262E-06                                 F               2         First time derivative of Platform yaw rotation DOF (internal DOF index = DOF_Y), rad/s
          4   -9.526E-04                                 F               2         First time derivative of 1st tower fore-aft bending mode DOF (internal DOF index = DOF_TFA1), m/s
          5    2.191E-06                                 F               2         First time derivative of 2nd tower fore-aft bending mode DOF (internal DOF index = DOF_TFA2), m/s
          6    8.938E-01                                 F               2         First time derivative of Variable speed generator DOF (internal DOF index = DOF_GeAz), rad/s
          7   -4.015E-04                                 F               2         First time derivative of First time derivative of Platform horizontal surge translation DOF (internal DOF index = DOF_Sg), m/s/s
          8   -2.110E-03                                 F               2         First time derivative of First time derivative of Platform vertical heave translation DOF (internal DOF index = DOF_Hv), m/s/s
          9    2.189E-06                                 F               2         First time derivative of First time derivative of Platform yaw rotation DOF (internal DOF index = DOF_Y), rad/s/s
         10   -1.272E-04                                 F               2         First time derivative of First time derivative of 1st tower fore-aft bending mode DOF (internal DOF index = DOF_TFA1), m/s/s
         11   -5.664E-06                                 F               2         First time derivative of First time derivative of 2nd tower fore-aft bending mode DOF (internal DOF index = DOF_TFA2), m/s/s
         12    1.892E-04                                 F               2         First time derivative of First time derivative of Variable speed generator DOF (internal DOF index = DOF_GeAz), rad/s/s

Order of inputs:
     Column   Operating Point                     Rotating Frame? Derivative Order Description
   ---------- ---------------                     --------------- ---------------- -----------
          1    7.819E+01                                 F               0         Blade 1 X force, node 1, N
          2   -8.633E+01                                 F               0         Blade 1 Y force, node 1, N
          3    2.524E+00                                 F               0         Blade 1 Z force, node 1, N
          4    3.293E+02                                 F               0         Blade 1 X force, node 2, N
          5   -1.579E+02                                 F               0         Blade 1 Y force, node 2, N
          6   -1.891E+01                                 F               0         Blade 1 Z force, node 2, N
          7    4.285E+02                                 F               0         Blade 1 X force, node 3, N
          8   -9.290E+01                                 F               0         Blade 1 Y force, node 3, N
          9   -4.078E+01                                 F               0         Blade 1 Z force, node 3, N
         10    5.629E+02                                 F               0         Blade 1 X force, node 4, N
         11   -4.743E+01                                 F               0         Blade 1 Y force, node 4, N
         12   -6.429E+01                                 F               0         Blade 1 Z force, node 4, N
         13    6.972E+02                                 F               0         Blade 1 X force, node 5, N
         14   -1.961E+00                                 F               0         Blade 1 Y force, node 5, N
         15   -8.780E+01                                 F               0         Blade 1 Z force, node 5, N
         16    8.316E+02                                 F               0         Blade 1 X force, node 6, N
         17    4.351E+01                                 F               0         Blade 1 Y force, node 6, N
         18   -1.113E+02                                 F               0         Blade 1 Z force, node 6, N
         19    9.660E+02                                 F               0         Blade 1 X force, node 7, N
         20    8.897E+01                                 F               0         Blade 1 Y force, node 7, N
         21   -1.348E+02                                 F               0         Blade 1 Z force, node 7, N
         22    1.100E+03                                 F               0         Blade 1 X force, node 8, N
         23    1.344E+02                                 F               0         Blade 1 Y force, node 8, N
         24   -1.583E+02                                 F               0         Blade 1 Z force, node 8, N
         25    1.235E+03                                 F               0         Blade 1 X force, node 9, N
         26    1.799E+02                                 F               0         Blade 1 Y force, node 9, N
         27   -1.818E+02                                 F               0         Blade 1 Z force, node 9, N
         28    1.369E+03                                 F               0         Blade 1 X force, node 10, N
         29    2.254E+02                                 F               0         Blade 1 Y force, node 10, N
         30   -2.053E+02                                 F               0         Blade 1 Z force, node 10, N
         31    1.503E+03                                 F               0         Blade 1 X force, node 11, N
         32    2.708E+02                                 F               0         Blade 1 Y force, node 11, N
         33   -2.288E+02                                 F               0         Blade 1 Z force, node 11, N
         34    1.638E+03                                 F               0         Blade 1 X force, node 12, N
         35    3.163E+02                                 F               0         Blade 1 Y force, node 12, N
         36   -2.523E+02                                 F               0         Blade 1 Z force, node 12, N
         37    1.772E+03                                 F               0         Blade 1 X force, node 13, N
         38    3.618E+02                                 F               0         Blade 1 Y force, node 13, N
         39   -2.758E+02                                 F               0         Blade 1 Z force, node 13, N
         40    1.907E+03                                 F               0         Blade 1 X force, node 14, N
         41    4.072E+02                                 F               0         Blade 1 Y force, node 14, N
         42   -2.993E+02                                 F               0         Blade 1 Z force, node 14, N
         43    2.041E+03                                 F               0         Blade 1 X force, node 15, N
         44    4.527E+02                                 F               0         Blade 1 Y force, node 15, N
         45   -3.229E+02                                 F               0         Blade 1 Z force, node 15, N
         46    2.175E+03                                 F               0         Blade 1 X force, node 16, N
         47    4.982E+02                                 F               0         Blade 1 Y force, node 16, N
         48   -3.464E+02                                 F               0         Blade 1 Z force, node 16, N
         49    2.680E+03                                 F               0         Blade 1 X force, node 17, N
         50    6.282E+02                                 F               0         Blade 1 Y force, node 17, N
         51   -4.288E+02                                 F               0         Blade 1 Z force, node 17, N
         52    2.061E+03                                 F               0         Blade 1 X force, node 18, N
         53    4.674E+02                                 F               0         Blade 1 Y force, node 18, N
         54   -3.275E+02                                 F               0         Blade 1 Z force, node 18, N
         55    2.549E+03                                 F               0         Blade 1 X force, node 19, N
         56    5.504E+02                                 F               0         Blade 1 Y force, node 19, N
         57   -4.011E+02                                 F               0         Blade 1 Z force, node 19, N
         58    2.190E+03                                 F               0         Blade 1 X force, node 20, N
         59    4.511E+02                                 F               0         Blade 1 Y force, node 20, N
         60   -3.414E+02                                 F               0         Blade 1 Z force, node 20, N
         61    3.260E+03                                 F               0         Blade 1 X force, node 21, N
         62    6.359E+02                                 F               0         Blade 1 Y force, node 21, N
         63   -5.032E+02                                 F               0         Blade 1 Z force, node 21, N
         64    2.900E+03                                 F               0         Blade 1 X force, node 22, N
         65    5.352E+02                                 F               0         Blade 1 Y force, node 22, N
         66   -4.432E+02                                 F               0         Blade 1 Z force, node 22, N
         67    2.999E+03                                 F               0         Blade 1 X force, node 23, N
         68    5.264E+02                                 F               0         Blade 1 Y force, node 23, N
         69   -4.544E+02                                 F               0         Blade 1 Z force, node 23, N
         70    3.151E+03                                 F               0         Blade 1 X force, node 24, N
         71    5.265E+02                                 F               0         Blade 1 Y force, node 24, N
         72   -4.737E+02                                 F               0         Blade 1 Z force, node 24, N
         73    3.248E+03                                 F               0         Blade 1 X force, node 25, N
         74    5.166E+02                                 F               0         Blade 1 Y force, node 25, N
         75   -4.846E+02                                 F               0         Blade 1 Z force, node 25, N
         76    3.363E+03                                 F               0         Blade 1 X force, node 26, N
         77    5.097E+02                                 F               0         Blade 1 Y force, node 26, N
         78   -4.981E+02                                 F               0         Blade 1 Z force, node 26, N
         79    4.052E+03                                 F               0         Blade 1 X force, node 27, N
         80    5.840E+02                                 F               0         Blade 1 Y force, node 27, N
         81   -5.958E+02                                 F               0         Blade 1 Z force, node 27, N
         82    3.019E+03                                 F               0         Blade 1 X force, node 28, N
         83    4.142E+02                                 F               0         Blade 1 Y force, node 28, N
         84   -4.409E+02                                 F               0         Blade 1 Z force, node 28, N
         85    3.709E+03                                 F               0         Blade 1 X force, node 29, N
         86    4.880E+02                                 F               0         Blade 1 Y force, node 29, N
         87   -5.386E+02                                 F               0         Blade 1 Z force, node 29, N
         88    3.167E+03                                 F               0         Blade 1 X force, node 30, N
         89    4.000E+02                                 F               0         Blade 1 Y force, node 30, N
         90   -4.575E+02                                 F               0         Blade 1 Z force, node 30, N
         91    4.595E+03                                 F               0         Blade 1 X force, node 31, N
         92    5.533E+02                                 F               0         Blade 1 Y force, node 31, N
         93   -6.599E+02                                 F               0         Blade 1 Z force, node 31, N
         94    4.052E+03                                 F               0         Blade 1 X force, node 32, N
         95    4.648E+02                                 F               0         Blade 1 Y force, node 32, N
         96   -5.787E+02                                 F               0         Blade 1 Z force, node 32, N
         97    4.166E+03                                 F               0         Blade 1 X force, node 33, N
         98    4.568E+02                                 F               0         Blade 1 Y force, node 33, N
         99   -5.919E+02                                 F               0         Blade 1 Z force, node 33, N
        100    4.281E+03                                 F               0         Blade 1 X force, node 34, N
        101    4.488E+02                                 F               0         Blade 1 Y force, node 34, N
        102   -6.052E+02                                 F               0         Blade 1 Z force, node 34, N
        103    4.395E+03                                 F               0         Blade 1 X force, node 35, N
        104    4.405E+02                                 F               0         Blade 1 Y force, node 35, N
        105   -6.185E+02                                 F               0         Blade 1 Z force, node 35, N
        106    4.509E+03                                 F               0         Blade 1 X force, node 36, N
        107    4.322E+02                                 F               0         Blade 1 Y force, node 36, N
        108   -6.316E+02                                 F               0         Blade 1 Z force, node 36, N
        109    5.409E+03                                 F               0         Blade 1 X force, node 37, N
        110    4.945E+02                                 F               0         Blade 1 Y force, node 37, N
        111   -7.544E+02                                 F               0         Blade 1 Z force, node 37, N
        112    3.950E+03                                 F               0         Blade 1 X force, node 38, N
        113    3.448E+02                                 F               0         Blade 1 Y force, node 38, N
        114   -5.486E+02                                 F               0         Blade 1 Z force, node 38, N
        115    4.852E+03                                 F               0         Blade 1 X force, node 39, N
        116    4.071E+02                                 F               0         Blade 1 Y force, node 39, N
        117   -6.714E+02                                 F               0         Blade 1 Z force, node 39, N
        118    4.146E+03                                 F               0         Blade 1 X force, node 40, N
        119    3.344E+02                                 F               0         Blade 1 Y force, node 40, N
        120   -5.718E+02                                 F               0         Blade 1 Z force, node 40, N
        121    5.902E+03                                 F               0         Blade 1 X force, node 41, N
        122    4.545E+02                                 F               0         Blade 1 Y force, node 41, N
        123   -8.109E+02                                 F               0         Blade 1 Z force, node 41, N
        124    5.194E+03                                 F               0         Blade 1 X force, node 42, N
        125    3.814E+02                                 F               0         Blade 1 Y force, node 42, N
        126   -7.109E+02                                 F               0         Blade 1 Z force, node 42, N
        127    5.307E+03                                 F               0         Blade 1 X force, node 43, N
        128    3.725E+02                                 F               0         Blade 1 Y force, node 43, N
        129   -7.239E+02                                 F               0         Blade 1 Z force, node 43, N
        130    5.448E+03                                 F               0         Blade 1 X force, node 44, N
        131    3.656E+02                                 F               0         Blade 1 Y force, node 44, N
        132   -7.408E+02                                 F               0         Blade 1 Z force, node 44, N
        133    5.504E+03                                 F               0         Blade 1 X force, node 45, N
        134    3.529E+02                                 F               0         Blade 1 Y force, node 45, N
        135   -7.460E+02                                 F               0         Blade 1 Z force, node 45, N
        136    5.646E+03                                 F               0         Blade 1 X force, node 46, N
        137    3.459E+02                                 F               0         Blade 1 Y force, node 46, N
        138   -7.629E+02                                 F               0         Blade 1 Z force, node 46, N
        139    6.770E+03                                 F               0         Blade 1 X force, node 47, N
        140    3.949E+02                                 F               0         Blade 1 Y force, node 47, N
        141   -9.119E+02                                 F               0         Blade 1 Z force, node 47, N
        142    4.860E+03                                 F               0         Blade 1 X force, node 48, N
        143    2.700E+02                                 F               0         Blade 1 Y force, node 48, N
        144   -6.528E+02                                 F               0         Blade 1 Z force, node 48, N
        145    5.984E+03                                 F               0         Blade 1 X force, node 49, N
        146    3.189E+02                                 F               0         Blade 1 Y force, node 49, N
        147   -8.017E+02                                 F               0         Blade 1 Z force, node 49, N
        148    5.126E+03                                 F               0         Blade 1 X force, node 50, N
        149    2.618E+02                                 F               0         Blade 1 Y force, node 50, N
        150   -6.851E+02                                 F               0         Blade 1 Z force, node 50, N
        151    7.179E+03                                 F               0         Blade 1 X force, node 51, N
        152    3.487E+02                                 F               0         Blade 1 Y force, node 51, N
        153   -9.570E+02                                 F               0         Blade 1 Z force, node 51, N
        154    6.323E+03                                 F               0         Blade 1 X force, node 52, N
        155    2.917E+02                                 F               0         Blade 1 Y force, node 52, N
        156   -8.406E+02                                 F               0         Blade 1 Z force, node 52, N
        157    6.437E+03                                 F               0         Blade 1 X force, node 53, N
        158    2.828E+02                                 F               0         Blade 1 Y force, node 53, N
        159   -8.537E+02                                 F               0         Blade 1 Z force, node 53, N
        160    6.623E+03                                 F               0         Blade 1 X force, node 54, N
        161    2.768E+02                                 F               0         Blade 1 Y force, node 54, N
        162   -8.764E+02                                 F               0         Blade 1 Z force, node 54, N
        163    6.592E+03                                 F               0         Blade 1 X force, node 55, N
        164    2.617E+02                                 F               0         Blade 1 Y force, node 55, N
        165   -8.703E+02                                 F               0         Blade 1 Z force, node 55, N
        166    6.777E+03                                 F               0         Blade 1 X force, node 56, N
        167    2.556E+02                                 F               0         Blade 1 Y force, node 56, N
        168   -8.928E+02                                 F               0         Blade 1 Z force, node 56, N
        169    8.137E+03                                 F               0         Blade 1 X force, node 57, N
        170    2.900E+02                                 F               0         Blade 1 Y force, node 57, N
        171   -1.070E+03                                 F               0         Blade 1 Z force, node 57, N
        172    5.756E+03                                 F               0         Blade 1 X force, node 58, N
        173    1.937E+02                                 F               0         Blade 1 Y force, node 58, N
        174   -7.549E+02                                 F               0         Blade 1 Z force, node 58, N
        175    7.117E+03                                 F               0         Blade 1 X force, node 59, N
        176    2.281E+02                                 F               0         Blade 1 Y force, node 59, N
        177   -9.318E+02                                 F               0         Blade 1 Z force, node 59, N
        178    6.123E+03                                 F               0         Blade 1 X force, node 60, N
        179    1.865E+02                                 F               0         Blade 1 Y force, node 60, N
        180   -8.002E+02                                 F               0         Blade 1 Z force, node 60, N
        181    8.450E+03                                 F               0         Blade 1 X force, node 61, N
        182    2.421E+02                                 F               0         Blade 1 Y force, node 61, N
        183   -1.102E+03                                 F               0         Blade 1 Z force, node 61, N
        184    7.453E+03                                 F               0         Blade 1 X force, node 62, N
        185    2.002E+02                                 F               0         Blade 1 Y force, node 62, N
        186   -9.703E+02                                 F               0         Blade 1 Z force, node 62, N
        187    7.564E+03                                 F               0         Blade 1 X force, node 63, N
        188    1.908E+02                                 F               0         Blade 1 Y force, node 63, N
        189   -9.829E+02                                 F               0         Blade 1 Z force, node 63, N
        190    7.804E+03                                 F               0         Blade 1 X force, node 64, N
        191    1.844E+02                                 F               0         Blade 1 Y force, node 64, N
        192   -1.012E+03                                 F               0         Blade 1 Z force, node 64, N
        193    7.661E+03                                 F               0         Blade 1 X force, node 65, N
        194    1.692E+02                                 F               0         Blade 1 Y force, node 65, N
        195   -9.921E+02                                 F               0         Blade 1 Z force, node 65, N
        196    7.904E+03                                 F               0         Blade 1 X force, node 66, N
        197    1.630E+02                                 F               0         Blade 1 Y force, node 66, N
        198   -1.022E+03                                 F               0         Blade 1 Z force, node 66, N
        199    9.512E+03                                 F               0         Blade 1 X force, node 67, N
        200    1.815E+02                                 F               0         Blade 1 Y force, node 67, N
        201   -1.228E+03                                 F               0         Blade 1 Z force, node 67, N
        202    6.638E+03                                 F               0         Blade 1 X force, node 68, N
        203    1.168E+02                                 F               0         Blade 1 Y force, node 68, N
        204   -8.553E+02                                 F               0         Blade 1 Z force, node 68, N
        205    8.244E+03                                 F               0         Blade 1 X force, node 69, N
        206    1.351E+02                                 F               0         Blade 1 Y force, node 69, N
        207   -1.061E+03                                 F               0         Blade 1 Z force, node 69, N
        208    7.126E+03                                 F               0         Blade 1 X force, node 70, N
        209    1.081E+02                                 F               0         Blade 1 Y force, node 70, N
        210   -9.158E+02                                 F               0         Blade 1 Z force, node 70, N
        211    9.698E+03                                 F               0         Blade 1 X force, node 71, N
        212    1.338E+02                                 F               0         Blade 1 Y force, node 71, N
        213   -1.244E+03                                 F               0         Blade 1 Z force, node 71, N
        214    8.577E+03                                 F               0         Blade 1 X force, node 72, N
        215    1.064E+02                                 F               0         Blade 1 Y force, node 72, N
        216   -1.099E+03                                 F               0         Blade 1 Z force, node 72, N
        217    8.685E+03                                 F               0         Blade 1 X force, node 73, N