
Linearized model: Predictions were generated on 31-Jan-2024 at 12:35:17 using OpenFAST, compiled as a 64-bit application using single precision at commit v3.5.1
 linked with  NWTC Subroutine Library; ElastoDyn; InflowWind; AeroDyn; ServoDyn; HydroDyn; MAP++ (<1.20.10>, <Oct-20-2023>)

Description from the FAST input file: CCT-9 Campign 4 model. Input files to be run with OpenFAST 3.5.0. GitHub branch from Lu Wang (https://github.com/luwang00/openfast/tree/dev) compiled on March 7, 2023.

Simulation information:
   Simulation time:                   504.2000 s
   Rotor Speed:                         0.8939 rad/s
   Azimuth:                             4.4999 rad
   Wind Speed:                         10.0000 m/s
   Number of continuous states:        12
   Number of discrete states:           0
   Number of constraint states:         0
   Number of inputs:                 1890
   Number of outputs:                  19
   Jacobians included in this file?    No

Order of continuous states:
   Row/Column Operating Point                     Rotating Frame? Derivative Order Description
   ---------- ---------------                     --------------- ---------------- -----------
          1    8.170E+00                                 F               2         Platform horizontal surge translation DOF (internal DOF index = DOF_Sg), m
          2   -6.558E-02                                 F               2         Platform vertical heave translation DOF (internal DOF index = DOF_Hv), m
          3    7.100E-03                                 F               2         Platform yaw rotation DOF (internal DOF index = DOF_Y), rad
          4    3.838E-01                                 F               2         1st tower fore-aft bending mode DOF (internal DOF index = DOF_TFA1), m
          5    1.292E-03                                 F               2         2nd tower fore-aft bending mode DOF (internal DOF index = DOF_TFA2), m
          6    2.929E+00                                 F               2         Variable speed generator DOF (internal DOF index = DOF_GeAz), rad
          7   -1.504E-03                                 F               2         First time derivative of Platform horizontal surge translation DOF (internal DOF index = DOF_Sg), m/s
          8   -7.530E-03                                 F               2         First time derivative of Platform vertical heave translation DOF (internal DOF index = DOF_Hv), m/s
          9    4.360E-06                                 F               2         First time derivative of Platform yaw rotation DOF (internal DOF index = DOF_Y), rad/s
         10    1.545E-04                                 F               2         First time derivative of 1st tower fore-aft bending mode DOF (internal DOF index = DOF_TFA1), m/s
         11    1.078E-06                                 F               2         First time derivative of 2nd tower fore-aft bending mode DOF (internal DOF index = DOF_TFA2), m/s
         12    8.939E-01                                 F               2         First time derivative of Variable speed generator DOF (internal DOF index = DOF_GeAz), rad/s

Order of continuous state derivatives:
   Row/Column Operating Point                     Rotating Frame? Derivative Order Description
   ---------- ---------------                     --------------- ---------------- -----------
          1   -1.504E-03                                 F               2         First time derivative of Platform horizontal surge translation DOF (internal DOF index = DOF_Sg), m/s
          2   -7.530E-03                                 F               2         First time derivative of Platform vertical heave translation DOF (internal DOF index = DOF_Hv), m/s
          3    4.360E-06                                 F               2         First time derivative of Platform yaw rotation DOF (internal DOF index = DOF_Y), rad/s
          4    1.545E-04                                 F               2         First time derivative of 1st tower fore-aft bending mode DOF (internal DOF index = DOF_TFA1), m/s
          5    1.078E-06                                 F               2         First time derivative of 2nd tower fore-aft bending mode DOF (internal DOF index = DOF_TFA2), m/s
          6    8.939E-01                                 F               2         First time derivative of Variable speed generator DOF (internal DOF index = DOF_GeAz), rad/s
          7   -4.587E-04                                 F               2         First time derivative of First time derivative of Platform horizontal surge translation DOF (internal DOF index = DOF_Sg), m/s/s
          8   -1.199E-03                                 F               2         First time derivative of First time derivative of Platform vertical heave translation DOF (internal DOF index = DOF_Hv), m/s/s
          9   -7.430E-07                                 F               2         First time derivative of First time derivative of Platform yaw rotation DOF (internal DOF index = DOF_Y), rad/s/s
         10    5.691E-04                                 F               2         First time derivative of First time derivative of 1st tower fore-aft bending mode DOF (internal DOF index = DOF_TFA1), m/s/s
         11    6.161E-08                                 F               2         First time derivative of First time derivative of 2nd tower fore-aft bending mode DOF (internal DOF index = DOF_TFA2), m/s/s
         12   -4.873E-05                                 F               2         First time derivative of First time derivative of Variable speed generator DOF (internal DOF index = DOF_GeAz), rad/s/s

Order of inputs:
     Column   Operating Point                     Rotating Frame? Derivative Order Description
   ---------- ---------------                     --------------- ---------------- -----------
          1    6.452E+01                                 F               0         Blade 1 X force, node 1, N
          2   -8.437E+00                                 F               0         Blade 1 Y force, node 1, N
          3   -6.281E+01                                 F               0         Blade 1 Z force, node 1, N
          4    2.987E+02                                 F               0         Blade 1 X force, node 2, N
          5   -1.481E+01                                 F               0         Blade 1 Y force, node 2, N
          6   -1.474E+02                                 F               0         Blade 1 Z force, node 2, N
          7    4.164E+02                                 F               0         Blade 1 X force, node 3, N
          8   -3.135E+00                                 F               0         Blade 1 Y force, node 3, N
          9   -1.020E+02                                 F               0         Blade 1 Z force, node 3, N
         10    5.659E+02                                 F               0         Blade 1 X force, node 4, N
         11    6.817E+00                                 F               0         Blade 1 Y force, node 4, N
         12   -7.313E+01                                 F               0         Blade 1 Z force, node 4, N
         13    7.154E+02                                 F               0         Blade 1 X force, node 5, N
         14    1.677E+01                                 F               0         Blade 1 Y force, node 5, N
         15   -4.427E+01                                 F               0         Blade 1 Z force, node 5, N
         16    8.649E+02                                 F               0         Blade 1 X force, node 6, N
         17    2.672E+01                                 F               0         Blade 1 Y force, node 6, N
         18   -1.540E+01                                 F               0         Blade 1 Z force, node 6, N
         19    1.014E+03                                 F               0         Blade 1 X force, node 7, N
         20    3.667E+01                                 F               0         Blade 1 Y force, node 7, N
         21    1.346E+01                                 F               0         Blade 1 Z force, node 7, N
         22    1.164E+03                                 F               0         Blade 1 X force, node 8, N
         23    4.662E+01                                 F               0         Blade 1 Y force, node 8, N
         24    4.232E+01                                 F               0         Blade 1 Z force, node 8, N
         25    1.313E+03                                 F               0         Blade 1 X force, node 9, N
         26    5.658E+01                                 F               0         Blade 1 Y force, node 9, N
         27    7.118E+01                                 F               0         Blade 1 Z force, node 9, N
         28    1.463E+03                                 F               0         Blade 1 X force, node 10, N
         29    6.653E+01                                 F               0         Blade 1 Y force, node 10, N
         30    1.000E+02                                 F               0         Blade 1 Z force, node 10, N
         31    1.613E+03                                 F               0         Blade 1 X force, node 11, N
         32    7.648E+01                                 F               0         Blade 1 Y force, node 11, N
         33    1.289E+02                                 F               0         Blade 1 Z force, node 11, N
         34    1.762E+03                                 F               0         Blade 1 X force, node 12, N
         35    8.643E+01                                 F               0         Blade 1 Y force, node 12, N
         36    1.578E+02                                 F               0         Blade 1 Z force, node 12, N
         37    1.912E+03                                 F               0         Blade 1 X force, node 13, N
         38    9.638E+01                                 F               0         Blade 1 Y force, node 13, N
         39    1.866E+02                                 F               0         Blade 1 Z force, node 13, N
         40    2.061E+03                                 F               0         Blade 1 X force, node 14, N
         41    1.063E+02                                 F               0         Blade 1 Y force, node 14, N
         42    2.155E+02                                 F               0         Blade 1 Z force, node 14, N
         43    2.211E+03                                 F               0         Blade 1 X force, node 15, N
         44    1.163E+02                                 F               0         Blade 1 Y force, node 15, N
         45    2.444E+02                                 F               0         Blade 1 Z force, node 15, N
         46    2.360E+03                                 F               0         Blade 1 X force, node 16, N
         47    1.262E+02                                 F               0         Blade 1 Y force, node 16, N
         48    2.732E+02                                 F               0         Blade 1 Z force, node 16, N
         49    2.910E+03                                 F               0         Blade 1 X force, node 17, N
         50    1.574E+02                                 F               0         Blade 1 Y force, node 17, N
         51    3.473E+02                                 F               0         Blade 1 Z force, node 17, N
         52    2.227E+03                                 F               0         Blade 1 X force, node 18, N
         53    1.171E+02                                 F               0         Blade 1 Y force, node 18, N
         54    2.461E+02                                 F               0         Blade 1 Z force, node 18, N
         55    2.738E+03                                 F               0         Blade 1 X force, node 19, N
         56    1.386E+02                                 F               0         Blade 1 Y force, node 19, N
         57    2.702E+02                                 F               0         Blade 1 Z force, node 19, N
         58    2.339E+03                                 F               0         Blade 1 X force, node 20, N
         59    1.140E+02                                 F               0         Blade 1 Y force, node 20, N
         60    2.053E+02                                 F               0         Blade 1 Z force, node 20, N
         61    3.461E+03                                 F               0         Blade 1 X force, node 21, N
         62    1.617E+02                                 F               0         Blade 1 Y force, node 21, N
         63    2.621E+02                                 F               0         Blade 1 Z force, node 21, N
         64    3.061E+03                                 F               0         Blade 1 X force, node 22, N
         65    1.371E+02                                 F               0         Blade 1 Y force, node 22, N
         66    1.968E+02                                 F               0         Blade 1 Z force, node 22, N
         67    3.149E+03                                 F               0         Blade 1 X force, node 23, N
         68    1.357E+02                                 F               0         Blade 1 Y force, node 23, N
         69    1.712E+02                                 F               0         Blade 1 Z force, node 23, N
         70    3.293E+03                                 F               0         Blade 1 X force, node 24, N
         71    1.367E+02                                 F               0         Blade 1 Y force, node 24, N
         72    1.483E+02                                 F               0         Blade 1 Z force, node 24, N
         73    3.380E+03                                 F               0         Blade 1 X force, node 25, N
         74    1.353E+02                                 F               0         Blade 1 Y force, node 25, N
         75    1.225E+02                                 F               0         Blade 1 Z force, node 25, N
         76    3.486E+03                                 F               0         Blade 1 X force, node 26, N
         77    1.347E+02                                 F               0         Blade 1 Y force, node 26, N
         78    9.754E+01                                 F               0         Blade 1 Z force, node 26, N
         79    4.184E+03                                 F               0         Blade 1 X force, node 27, N
         80    1.558E+02                                 F               0         Blade 1 Y force, node 27, N
         81    8.263E+01                                 F               0         Blade 1 Z force, node 27, N
         82    3.106E+03                                 F               0         Blade 1 X force, node 28, N
         83    1.117E+02                                 F               0         Blade 1 Y force, node 28, N
         84    3.764E+01                                 F               0         Blade 1 Z force, node 28, N
         85    3.804E+03                                 F               0         Blade 1 X force, node 29, N
         86    1.328E+02                                 F               0         Blade 1 Y force, node 29, N
         87    2.269E+01                                 F               0         Blade 1 Z force, node 29, N
         88    3.239E+03                                 F               0         Blade 1 X force, node 30, N
         89    1.099E+02                                 F               0         Blade 1 Y force, node 30, N
         90    4.435E-01                                 F               0         Blade 1 Z force, node 30, N
         91    4.685E+03                                 F               0         Blade 1 X force, node 31, N
         92    1.538E+02                                 F               0         Blade 1 Y force, node 31, N
         93   -2.998E+01                                 F               0         Blade 1 Z force, node 31, N
         94    4.121E+03                                 F               0         Blade 1 X force, node 32, N
         95    1.309E+02                                 F               0         Blade 1 Y force, node 32, N
         96   -5.227E+01                                 F               0         Blade 1 Z force, node 32, N
         97    4.225E+03                                 F               0         Blade 1 X force, node 33, N
         98    1.302E+02                                 F               0         Blade 1 Y force, node 33, N
         99   -7.727E+01                                 F               0         Blade 1 Z force, node 33, N
        100    4.331E+03                                 F               0         Blade 1 X force, node 34, N
        101    1.295E+02                                 F               0         Blade 1 Y force, node 34, N
        102   -1.023E+02                                 F               0         Blade 1 Z force, node 34, N
        103    4.437E+03                                 F               0         Blade 1 X force, node 35, N
        104    1.289E+02                                 F               0         Blade 1 Y force, node 35, N
        105   -1.273E+02                                 F               0         Blade 1 Z force, node 35, N
        106    4.542E+03                                 F               0         Blade 1 X force, node 36, N
        107    1.282E+02                                 F               0         Blade 1 Y force, node 36, N
        108   -1.523E+02                                 F               0         Blade 1 Z force, node 36, N
        109    5.437E+03                                 F               0         Blade 1 X force, node 37, N
        110    1.490E+02                                 F               0         Blade 1 Y force, node 37, N
        111   -2.090E+02                                 F               0         Blade 1 Z force, node 37, N
        112    3.963E+03                                 F               0         Blade 1 X force, node 38, N
        113    1.055E+02                                 F               0         Blade 1 Y force, node 38, N
        114   -1.706E+02                                 F               0         Blade 1 Z force, node 38, N
        115    4.860E+03                                 F               0         Blade 1 X force, node 39, N
        116    1.263E+02                                 F               0         Blade 1 Y force, node 39, N
        117   -2.273E+02                                 F               0         Blade 1 Z force, node 39, N
        118    4.146E+03                                 F               0         Blade 1 X force, node 40, N
        119    1.053E+02                                 F               0         Blade 1 Y force, node 40, N
        120   -2.088E+02                                 F               0         Blade 1 Z force, node 40, N
        121    5.892E+03                                 F               0         Blade 1 X force, node 41, N
        122    1.455E+02                                 F               0         Blade 1 Y force, node 41, N
        123   -3.207E+02                                 F               0         Blade 1 Z force, node 41, N
        124    5.177E+03                                 F               0         Blade 1 X force, node 42, N
        125    1.244E+02                                 F               0         Blade 1 Y force, node 42, N
        126   -3.022E+02                                 F               0         Blade 1 Z force, node 42, N
        127    5.282E+03                                 F               0         Blade 1 X force, node 43, N
        128    1.237E+02                                 F               0         Blade 1 Y force, node 43, N
        129   -3.272E+02                                 F               0         Blade 1 Z force, node 43, N
        130    5.416E+03                                 F               0         Blade 1 X force, node 44, N
        131    1.237E+02                                 F               0         Blade 1 Y force, node 44, N
        132   -3.541E+02                                 F               0         Blade 1 Z force, node 44, N
        133    5.464E+03                                 F               0         Blade 1 X force, node 45, N
        134    1.218E+02                                 F               0         Blade 1 Y force, node 45, N
        135   -3.753E+02                                 F               0         Blade 1 Z force, node 45, N
        136    5.598E+03                                 F               0         Blade 1 X force, node 46, N
        137    1.218E+02                                 F               0         Blade 1 Y force, node 46, N
        138   -4.021E+02                                 F               0         Blade 1 Z force, node 46, N
        139    6.704E+03                                 F               0         Blade 1 X force, node 47, N
        140    1.421E+02                                 F               0         Blade 1 Y force, node 47, N
        141   -5.033E+02                                 F               0         Blade 1 Z force, node 47, N
        142    4.807E+03                                 F               0         Blade 1 X force, node 48, N
        143    9.943E+01                                 F               0         Blade 1 Y force, node 48, N
        144   -3.757E+02                                 F               0         Blade 1 Z force, node 48, N
        145    5.913E+03                                 F               0         Blade 1 X force, node 49, N
        146    1.198E+02                                 F               0         Blade 1 Y force, node 49, N
        147   -4.769E+02                                 F               0         Blade 1 Z force, node 49, N
        148    5.060E+03                                 F               0         Blade 1 X force, node 50, N
        149    1.004E+02                                 F               0         Blade 1 Y force, node 50, N
        150   -4.206E+02                                 F               0         Blade 1 Z force, node 50, N
        151    7.080E+03                                 F               0         Blade 1 X force, node 51, N
        152    1.372E+02                                 F               0         Blade 1 Y force, node 51, N
        153   -6.081E+02                                 F               0         Blade 1 Z force, node 51, N
        154    6.229E+03                                 F               0         Blade 1 X force, node 52, N
        155    1.179E+02                                 F               0         Blade 1 Y force, node 52, N
        156   -5.518E+02                                 F               0         Blade 1 Z force, node 52, N
        157    6.336E+03                                 F               0         Blade 1 X force, node 53, N
        158    1.173E+02                                 F               0         Blade 1 Y force, node 53, N
        159   -5.768E+02                                 F               0         Blade 1 Z force, node 53, N
        160    6.513E+03                                 F               0         Blade 1 X force, node 54, N
        161    1.179E+02                                 F               0         Blade 1 Y force, node 54, N
        162   -6.084E+02                                 F               0         Blade 1 Z force, node 54, N
        163    6.478E+03                                 F               0         Blade 1 X force, node 55, N
        164    1.148E+02                                 F               0         Blade 1 Y force, node 55, N
        165   -6.200E+02                                 F               0         Blade 1 Z force, node 55, N
        166    6.655E+03                                 F               0         Blade 1 X force, node 56, N
        167    1.154E+02                                 F               0         Blade 1 Y force, node 56, N
        168   -6.516E+02                                 F               0         Blade 1 Z force, node 56, N
        169    7.984E+03                                 F               0         Blade 1 X force, node 57, N
        170    1.353E+02                                 F               0         Blade 1 Y force, node 57, N
        171   -8.002E+02                                 F               0         Blade 1 Z force, node 57, N
        172    5.643E+03                                 F               0         Blade 1 X force, node 58, N
        173    9.358E+01                                 F               0         Blade 1 Y force, node 58, N
        174   -5.779E+02                                 F               0         Blade 1 Z force, node 58, N
        175    6.973E+03                                 F               0         Blade 1 X force, node 59, N
        176    1.135E+02                                 F               0         Blade 1 Y force, node 59, N
        177   -7.265E+02                                 F               0         Blade 1 Z force, node 59, N
        178    5.996E+03                                 F               0         Blade 1 X force, node 60, N
        179    9.583E+01                                 F               0         Blade 1 Y force, node 60, N
        180   -6.352E+02                                 F               0         Blade 1 Z force, node 60, N
        181    8.269E+03                                 F               0         Blade 1 X force, node 61, N
        182    1.294E+02                                 F               0         Blade 1 Y force, node 61, N
        183   -8.926E+02                                 F               0         Blade 1 Z force, node 61, N
        184    7.289E+03                                 F               0         Blade 1 X force, node 62, N
        185    1.116E+02                                 F               0         Blade 1 Y force, node 62, N
        186   -8.012E+02                                 F               0         Blade 1 Z force, node 62, N
        187    7.393E+03                                 F               0         Blade 1 X force, node 63, N
        188    1.109E+02                                 F               0         Blade 1 Y force, node 63, N
        189   -8.261E+02                                 F               0         Blade 1 Z force, node 63, N
        190    7.623E+03                                 F               0         Blade 1 X force, node 64, N
        191    1.121E+02                                 F               0         Blade 1 Y force, node 64, N
        192   -8.653E+02                                 F               0         Blade 1 Z force, node 64, N
        193    7.480E+03                                 F               0         Blade 1 X force, node 65, N
        194    1.078E+02                                 F               0         Blade 1 Y force, node 65, N
        195   -8.616E+02                                 F               0         Blade 1 Z force, node 65, N
        196    7.713E+03                                 F               0         Blade 1 X force, node 66, N
        197    1.091E+02                                 F               0         Blade 1 Y force, node 66, N
        198   -9.010E+02                                 F               0         Blade 1 Z force, node 66, N
        199    9.277E+03                                 F               0         Blade 1 X force, node 67, N
        200    1.285E+02                                 F               0         Blade 1 Y force, node 67, N
        201   -1.100E+03                                 F               0         Blade 1 Z force, node 67, N
        202    6.470E+03                                 F               0         Blade 1 X force, node 68, N
        203    8.786E+01                                 F               0         Blade 1 Y force, node 68, N
        204   -7.775E+02                                 F               0         Blade 1 Z force, node 68, N
        205    8.033E+03                                 F               0         Blade 1 X force, node 69, N
        206    1.073E+02                                 F               0         Blade 1 Y force, node 69, N
        207   -9.761E+02                                 F               0         Blade 1 Z force, node 69, N
        208    6.941E+03                                 F               0         Blade 1 X force, node 70, N
        209    9.110E+01                                 F               0         Blade 1 Y force, node 70, N
        210   -8.527E+02                                 F               0         Blade 1 Z force, node 70, N
        211    9.442E+03                                 F               0         Blade 1 X force, node 71, N
        212    1.215E+02                                 F               0         Blade 1 Y force, node 71, N
        213   -1.174E+03                                 F               0         Blade 1 Z force, node 71, N
        214    8.347E+03                                 F               0         Blade 1 X force, node 72, N
        215    1.052E+02                                 F               0         Blade 1 Y force, node 72, N
        216   -1.051E+03                                 F               0         Blade 1 Z force, node 72, N
        217    8.449E+03                                 F               0         Blade 1 X force, node 73, N