
Linearized model: Predictions were generated on 31-Jan-2024 at 12:35:17 using OpenFAST, compiled as a 64-bit application using single precision at commit v3.5.1
 linked with  NWTC Subroutine Library; ElastoDyn; InflowWind; AeroDyn; ServoDyn; HydroDyn; MAP++ (<1.20.10>, <Oct-20-2023>)

Description from the FAST input file: CCT-9 Campign 4 model. Input files to be run with OpenFAST 3.5.0. GitHub branch from Lu Wang (https://github.com/luwang00/openfast/tree/dev) compiled on March 7, 2023.

Simulation information:
   Simulation time:                   501.7500 s
   Rotor Speed:                         0.8936 rad/s
   Azimuth:                             2.3100 rad
   Wind Speed:                         10.0000 m/s
   Number of continuous states:        12
   Number of discrete states:           0
   Number of constraint states:         0
   Number of inputs:                 1890
   Number of outputs:                  19
   Jacobians included in this file?    No

Order of continuous states:
   Row/Column Operating Point                     Rotating Frame? Derivative Order Description
   ---------- ---------------                     --------------- ---------------- -----------
          1    8.172E+00                                 F               2         Platform horizontal surge translation DOF (internal DOF index = DOF_Sg), m
          2   -5.222E-02                                 F               2         Platform vertical heave translation DOF (internal DOF index = DOF_Hv), m
          3    7.091E-03                                 F               2         Platform yaw rotation DOF (internal DOF index = DOF_Y), rad
          4    3.852E-01                                 F               2         1st tower fore-aft bending mode DOF (internal DOF index = DOF_TFA1), m
          5    1.286E-03                                 F               2         2nd tower fore-aft bending mode DOF (internal DOF index = DOF_TFA2), m
          6    7.392E-01                                 F               2         Variable speed generator DOF (internal DOF index = DOF_GeAz), rad
          7   -4.397E-04                                 F               2         First time derivative of Platform horizontal surge translation DOF (internal DOF index = DOF_Sg), m/s
          8   -2.957E-03                                 F               2         First time derivative of Platform vertical heave translation DOF (internal DOF index = DOF_Hv), m/s
          9    8.995E-07                                 F               2         First time derivative of Platform yaw rotation DOF (internal DOF index = DOF_Y), rad/s
         10   -6.394E-04                                 F               2         First time derivative of 1st tower fore-aft bending mode DOF (internal DOF index = DOF_TFA1), m/s
         11    4.245E-06                                 F               2         First time derivative of 2nd tower fore-aft bending mode DOF (internal DOF index = DOF_TFA2), m/s
         12    8.936E-01                                 F               2         First time derivative of Variable speed generator DOF (internal DOF index = DOF_GeAz), rad/s

Order of continuous state derivatives:
   Row/Column Operating Point                     Rotating Frame? Derivative Order Description
   ---------- ---------------                     --------------- ---------------- -----------
          1   -4.397E-04                                 F               2         First time derivative of Platform horizontal surge translation DOF (internal DOF index = DOF_Sg), m/s
          2   -2.957E-03                                 F               2         First time derivative of Platform vertical heave translation DOF (internal DOF index = DOF_Hv), m/s
          3    8.995E-07                                 F               2         First time derivative of Platform yaw rotation DOF (internal DOF index = DOF_Y), rad/s
          4   -6.394E-04                                 F               2         First time derivative of 1st tower fore-aft bending mode DOF (internal DOF index = DOF_TFA1), m/s
          5    4.245E-06                                 F               2         First time derivative of 2nd tower fore-aft bending mode DOF (internal DOF index = DOF_TFA2), m/s
          6    8.936E-01                                 F               2         First time derivative of Variable speed generator DOF (internal DOF index = DOF_GeAz), rad/s
          7   -3.657E-04                                 F               2         First time derivative of First time derivative of Platform horizontal surge translation DOF (internal DOF index = DOF_Sg), m/s/s
          8   -2.240E-03                                 F               2         First time derivative of First time derivative of Platform vertical heave translation DOF (internal DOF index = DOF_Hv), m/s/s
          9    3.892E-06                                 F               2         First time derivative of First time derivative of Platform yaw rotation DOF (internal DOF index = DOF_Y), rad/s/s
         10   -5.385E-04                                 F               2         First time derivative of First time derivative of 1st tower fore-aft bending mode DOF (internal DOF index = DOF_TFA1), m/s/s
         11   -5.576E-07                                 F               2         First time derivative of First time derivative of 2nd tower fore-aft bending mode DOF (internal DOF index = DOF_TFA2), m/s/s
         12    1.950E-04                                 F               2         First time derivative of First time derivative of Variable speed generator DOF (internal DOF index = DOF_GeAz), rad/s/s

Order of inputs:
     Column   Operating Point                     Rotating Frame? Derivative Order Description
   ---------- ---------------                     --------------- ---------------- -----------
          1    8.807E+01                                 F               0         Blade 1 X force, node 1, N
          2   -7.353E+01                                 F               0         Blade 1 Y force, node 1, N
          3    6.443E+01                                 F               0         Blade 1 Z force, node 1, N
          4    3.478E+02                                 F               0         Blade 1 X force, node 2, N
          5   -1.300E+02                                 F               0         Blade 1 Y force, node 2, N
          6    9.167E+01                                 F               0         Blade 1 Z force, node 2, N
          7    4.353E+02                                 F               0         Blade 1 X force, node 3, N
          8   -8.279E+01                                 F               0         Blade 1 Y force, node 3, N
          9    3.366E+01                                 F               0         Blade 1 Z force, node 3, N
         10    5.601E+02                                 F               0         Blade 1 X force, node 4, N
         11   -5.212E+01                                 F               0         Blade 1 Y force, node 4, N
         12   -1.189E+01                                 F               0         Blade 1 Z force, node 4, N
         13    6.849E+02                                 F               0         Blade 1 X force, node 5, N
         14   -2.146E+01                                 F               0         Blade 1 Y force, node 5, N
         15   -5.744E+01                                 F               0         Blade 1 Z force, node 5, N
         16    8.097E+02                                 F               0         Blade 1 X force, node 6, N
         17    9.204E+00                                 F               0         Blade 1 Y force, node 6, N
         18   -1.030E+02                                 F               0         Blade 1 Z force, node 6, N
         19    9.344E+02                                 F               0         Blade 1 X force, node 7, N
         20    3.987E+01                                 F               0         Blade 1 Y force, node 7, N
         21   -1.486E+02                                 F               0         Blade 1 Z force, node 7, N
         22    1.059E+03                                 F               0         Blade 1 X force, node 8, N
         23    7.053E+01                                 F               0         Blade 1 Y force, node 8, N
         24   -1.941E+02                                 F               0         Blade 1 Z force, node 8, N
         25    1.184E+03                                 F               0         Blade 1 X force, node 9, N
         26    1.012E+02                                 F               0         Blade 1 Y force, node 9, N
         27   -2.397E+02                                 F               0         Blade 1 Z force, node 9, N
         28    1.309E+03                                 F               0         Blade 1 X force, node 10, N
         29    1.319E+02                                 F               0         Blade 1 Y force, node 10, N
         30   -2.852E+02                                 F               0         Blade 1 Z force, node 10, N
         31    1.434E+03                                 F               0         Blade 1 X force, node 11, N
         32    1.625E+02                                 F               0         Blade 1 Y force, node 11, N
         33   -3.308E+02                                 F               0         Blade 1 Z force, node 11, N
         34    1.558E+03                                 F               0         Blade 1 X force, node 12, N
         35    1.932E+02                                 F               0         Blade 1 Y force, node 12, N
         36   -3.763E+02                                 F               0         Blade 1 Z force, node 12, N
         37    1.683E+03                                 F               0         Blade 1 X force, node 13, N
         38    2.239E+02                                 F               0         Blade 1 Y force, node 13, N
         39   -4.219E+02                                 F               0         Blade 1 Z force, node 13, N
         40    1.808E+03                                 F               0         Blade 1 X force, node 14, N
         41    2.545E+02                                 F               0         Blade 1 Y force, node 14, N
         42   -4.674E+02                                 F               0         Blade 1 Z force, node 14, N
         43    1.933E+03                                 F               0         Blade 1 X force, node 15, N
         44    2.852E+02                                 F               0         Blade 1 Y force, node 15, N
         45   -5.130E+02                                 F               0         Blade 1 Z force, node 15, N
         46    2.057E+03                                 F               0         Blade 1 X force, node 16, N
         47    3.158E+02                                 F               0         Blade 1 Y force, node 16, N
         48   -5.585E+02                                 F               0         Blade 1 Z force, node 16, N
         49    2.533E+03                                 F               0         Blade 1 X force, node 17, N
         50    4.005E+02                                 F               0         Blade 1 Y force, node 17, N
         51   -6.994E+02                                 F               0         Blade 1 Z force, node 17, N
         52    1.952E+03                                 F               0         Blade 1 X force, node 18, N
         53    2.993E+02                                 F               0         Blade 1 Y force, node 18, N
         54   -5.296E+02                                 F               0         Blade 1 Z force, node 18, N
         55    2.422E+03                                 F               0         Blade 1 X force, node 19, N
         56    3.539E+02                                 F               0         Blade 1 Y force, node 19, N
         57   -6.393E+02                                 F               0         Blade 1 Z force, node 19, N
         58    2.086E+03                                 F               0         Blade 1 X force, node 20, N
         59    2.911E+02                                 F               0         Blade 1 Y force, node 20, N
         60   -5.368E+02                                 F               0         Blade 1 Z force, node 20, N
         61    3.116E+03                                 F               0         Blade 1 X force, node 21, N
         62    4.120E+02                                 F               0         Blade 1 Y force, node 21, N
         63   -7.786E+02                                 F               0         Blade 1 Z force, node 21, N
         64    2.779E+03                                 F               0         Blade 1 X force, node 22, N
         65    3.480E+02                                 F               0         Blade 1 Y force, node 22, N
         66   -6.747E+02                                 F               0         Blade 1 Z force, node 22, N
         67    2.880E+03                                 F               0         Blade 1 X force, node 23, N
         68    3.434E+02                                 F               0         Blade 1 Y force, node 23, N
         69   -6.817E+02                                 F               0         Blade 1 Z force, node 23, N
         70    3.033E+03                                 F               0         Blade 1 X force, node 24, N
         71    3.445E+02                                 F               0         Blade 1 Y force, node 24, N
         72   -7.005E+02                                 F               0         Blade 1 Z force, node 24, N
         73    3.133E+03                                 F               0         Blade 1 X force, node 25, N
         74    3.390E+02                                 F               0         Blade 1 Y force, node 25, N
         75   -7.065E+02                                 F               0         Blade 1 Z force, node 25, N
         76    3.251E+03                                 F               0         Blade 1 X force, node 26, N
         77    3.353E+02                                 F               0         Blade 1 Y force, node 26, N
         78   -7.163E+02                                 F               0         Blade 1 Z force, node 26, N
         79    3.924E+03                                 F               0         Blade 1 X force, node 27, N
         80    3.852E+02                                 F               0         Blade 1 Y force, node 27, N
         81   -8.448E+02                                 F               0         Blade 1 Z force, node 27, N
         82    2.928E+03                                 F               0         Blade 1 X force, node 28, N
         83    2.738E+02                                 F               0         Blade 1 Y force, node 28, N
         84   -6.167E+02                                 F               0         Blade 1 Z force, node 28, N
         85    3.601E+03                                 F               0         Blade 1 X force, node 29, N
         86    3.232E+02                                 F               0         Blade 1 Y force, node 29, N
         87   -7.446E+02                                 F               0         Blade 1 Z force, node 29, N
         88    3.079E+03                                 F               0         Blade 1 X force, node 30, N
         89    2.655E+02                                 F               0         Blade 1 Y force, node 30, N
         90   -6.256E+02                                 F               0         Blade 1 Z force, node 30, N
         91    4.473E+03                                 F               0         Blade 1 X force, node 31, N
         92    3.679E+02                                 F               0         Blade 1 Y force, node 31, N
         93   -8.908E+02                                 F               0         Blade 1 Z force, node 31, N
         94    3.950E+03                                 F               0         Blade 1 X force, node 32, N
         95    3.097E+02                                 F               0         Blade 1 Y force, node 32, N
         96   -7.712E+02                                 F               0         Blade 1 Z force, node 32, N
         97    4.065E+03                                 F               0         Blade 1 X force, node 33, N
         98    3.048E+02                                 F               0         Blade 1 Y force, node 33, N
         99   -7.797E+02                                 F               0         Blade 1 Z force, node 33, N
        100    4.182E+03                                 F               0         Blade 1 X force, node 34, N
        101    3.001E+02                                 F               0         Blade 1 Y force, node 34, N
        102   -7.882E+02                                 F               0         Blade 1 Z force, node 34, N
        103    4.298E+03                                 F               0         Blade 1 X force, node 35, N
        104    2.950E+02                                 F               0         Blade 1 Y force, node 35, N
        105   -7.966E+02                                 F               0         Blade 1 Z force, node 35, N
        106    4.413E+03                                 F               0         Blade 1 X force, node 36, N
        107    2.899E+02                                 F               0         Blade 1 Y force, node 36, N
        108   -8.047E+02                                 F               0         Blade 1 Z force, node 36, N
        109    5.299E+03                                 F               0         Blade 1 X force, node 37, N
        110    3.324E+02                                 F               0         Blade 1 Y force, node 37, N
        111   -9.503E+02                                 F               0         Blade 1 Z force, node 37, N
        112    3.873E+03                                 F               0         Blade 1 X force, node 38, N
        113    2.321E+02                                 F               0         Blade 1 Y force, node 38, N
        114   -6.836E+02                                 F               0         Blade 1 Z force, node 38, N
        115    4.761E+03                                 F               0         Blade 1 X force, node 39, N
        116    2.744E+02                                 F               0         Blade 1 Y force, node 39, N
        117   -8.292E+02                                 F               0         Blade 1 Z force, node 39, N
        118    4.071E+03                                 F               0         Blade 1 X force, node 40, N
        119    2.258E+02                                 F               0         Blade 1 Y force, node 40, N
        120   -7.000E+02                                 F               0         Blade 1 Z force, node 40, N
        121    5.799E+03                                 F               0         Blade 1 X force, node 41, N
        122    3.073E+02                                 F               0         Blade 1 Y force, node 41, N
        123   -9.827E+02                                 F               0         Blade 1 Z force, node 41, N
        124    5.107E+03                                 F               0         Blade 1 X force, node 42, N
        125    2.583E+02                                 F               0         Blade 1 Y force, node 42, N
        126   -8.529E+02                                 F               0         Blade 1 Z force, node 42, N
        127    5.221E+03                                 F               0         Blade 1 X force, node 43, N
        128    2.527E+02                                 F               0         Blade 1 Y force, node 43, N
        129   -8.604E+02                                 F               0         Blade 1 Z force, node 43, N
        130    5.364E+03                                 F               0         Blade 1 X force, node 44, N
        131    2.484E+02                                 F               0         Blade 1 Y force, node 44, N
        132   -8.725E+02                                 F               0         Blade 1 Z force, node 44, N
        133    5.421E+03                                 F               0         Blade 1 X force, node 45, N
        134    2.401E+02                                 F               0         Blade 1 Y force, node 45, N
        135   -8.708E+02                                 F               0         Blade 1 Z force, node 45, N
        136    5.564E+03                                 F               0         Blade 1 X force, node 46, N
        137    2.357E+02                                 F               0         Blade 1 Y force, node 46, N
        138   -8.828E+02                                 F               0         Blade 1 Z force, node 46, N
        139    6.675E+03                                 F               0         Blade 1 X force, node 47, N
        140    2.696E+02                                 F               0         Blade 1 Y force, node 47, N
        141   -1.046E+03                                 F               0         Blade 1 Z force, node 47, N
        142    4.795E+03                                 F               0         Blade 1 X force, node 48, N
        143    1.846E+02                                 F               0         Blade 1 Y force, node 48, N
        144   -7.420E+02                                 F               0         Blade 1 Z force, node 48, N
        145    5.905E+03                                 F               0         Blade 1 X force, node 49, N
        146    2.183E+02                                 F               0         Blade 1 Y force, node 49, N
        147   -9.047E+02                                 F               0         Blade 1 Z force, node 49, N
        148    5.061E+03                                 F               0         Blade 1 X force, node 50, N
        149    1.795E+02                                 F               0         Blade 1 Y force, node 50, N
        150   -7.676E+02                                 F               0         Blade 1 Z force, node 50, N
        151    7.091E+03                                 F               0         Blade 1 X force, node 51, N
        152    2.395E+02                                 F               0         Blade 1 Y force, node 51, N
        153   -1.063E+03                                 F               0         Blade 1 Z force, node 51, N
        154    6.248E+03                                 F               0         Blade 1 X force, node 52, N
        155    2.008E+02                                 F               0         Blade 1 Y force, node 52, N
        156   -9.265E+02                                 F               0         Blade 1 Z force, node 52, N
        157    6.363E+03                                 F               0         Blade 1 X force, node 53, N
        158    1.949E+02                                 F               0         Blade 1 Y force, node 53, N
        159   -9.339E+02                                 F               0         Blade 1 Z force, node 53, N
        160    6.549E+03                                 F               0         Blade 1 X force, node 54, N
        161    1.912E+02                                 F               0         Blade 1 Y force, node 54, N
        162   -9.516E+02                                 F               0         Blade 1 Z force, node 54, N
        163    6.521E+03                                 F               0         Blade 1 X force, node 55, N
        164    1.811E+02                                 F               0         Blade 1 Y force, node 55, N
        165   -9.381E+02                                 F               0         Blade 1 Z force, node 55, N
        166    6.706E+03                                 F               0         Blade 1 X force, node 56, N
        167    1.772E+02                                 F               0         Blade 1 Y force, node 56, N
        168   -9.556E+02                                 F               0         Blade 1 Z force, node 56, N
        169    8.055E+03                                 F               0         Blade 1 X force, node 57, N
        170    2.015E+02                                 F               0         Blade 1 Y force, node 57, N
        171   -1.136E+03                                 F               0         Blade 1 Z force, node 57, N
        172    5.700E+03                                 F               0         Blade 1 X force, node 58, N
        173    1.350E+02                                 F               0         Blade 1 Y force, node 58, N
        174   -7.963E+02                                 F               0         Blade 1 Z force, node 58, N
        175    7.049E+03                                 F               0         Blade 1 X force, node 59, N
        176    1.592E+02                                 F               0         Blade 1 Y force, node 59, N
        177   -9.770E+02                                 F               0         Blade 1 Z force, node 59, N
        178    6.066E+03                                 F               0         Blade 1 X force, node 60, N
        179    1.305E+02                                 F               0         Blade 1 Y force, node 60, N
        180   -8.341E+02                                 F               0         Blade 1 Z force, node 60, N
        181    8.374E+03                                 F               0         Blade 1 X force, node 61, N
        182    1.699E+02                                 F               0         Blade 1 Y force, node 61, N
        183   -1.141E+03                                 F               0         Blade 1 Z force, node 61, N
        184    7.388E+03                                 F               0         Blade 1 X force, node 62, N
        185    1.409E+02                                 F               0         Blade 1 Y force, node 62, N
        186   -9.976E+02                                 F               0         Blade 1 Z force, node 62, N
        187    7.500E+03                                 F               0         Blade 1 X force, node 63, N
        188    1.347E+02                                 F               0         Blade 1 Y force, node 63, N
        189   -1.004E+03                                 F               0         Blade 1 Z force, node 63, N
        190    7.740E+03                                 F               0         Blade 1 X force, node 64, N
        191    1.306E+02                                 F               0         Blade 1 Y force, node 64, N
        192   -1.028E+03                                 F               0         Blade 1 Z force, node 64, N
        193    7.599E+03                                 F               0         Blade 1 X force, node 65, N
        194    1.203E+02                                 F               0         Blade 1 Y force, node 65, N
        195   -1.001E+03                                 F               0         Blade 1 Z force, node 65, N
        196    7.842E+03                                 F               0         Blade 1 X force, node 66, N
        197    1.164E+02                                 F               0         Blade 1 Y force, node 66, N
        198   -1.025E+03                                 F               0         Blade 1 Z force, node 66, N
        199    9.440E+03                                 F               0         Blade 1 X force, node 67, N
        200    1.302E+02                                 F               0         Blade 1 Y force, node 67, N
        201   -1.224E+03                                 F               0         Blade 1 Z force, node 67, N
        202    6.589E+03                                 F               0         Blade 1 X force, node 68, N
        203    8.426E+01                                 F               0         Blade 1 Y force, node 68, N
        204   -8.477E+02                                 F               0         Blade 1 Z force, node 68, N
        205    8.185E+03                                 F               0         Blade 1 X force, node 69, N
        206    9.794E+01                                 F               0         Blade 1 Y force, node 69, N
        207   -1.046E+03                                 F               0         Blade 1 Z force, node 69, N
        208    7.076E+03                                 F               0         Blade 1 X force, node 70, N
        209    7.883E+01                                 F               0         Blade 1 Y force, node 70, N
        210   -8.986E+02                                 F               0         Blade 1 Z force, node 70, N
        211    9.632E+03                                 F               0         Blade 1 X force, node 71, N
        212    9.824E+01                                 F               0         Blade 1 Y force, node 71, N
        213   -1.214E+03                                 F               0         Blade 1 Z force, node 71, N
        214    8.520E+03                                 F               0         Blade 1 X force, node 72, N
        215    7.881E+01                                 F               0         Blade 1 Y force, node 72, N
        216   -1.066E+03                                 F               0         Blade 1 Z force, node 72, N
        217    8.629E+03                                 F               0         Blade 1 X force, node 73, N