
Linearized model: Predictions were generated on 13-Feb-2024 at 11:29:37 using OpenFAST, compiled as a 64-bit application using single precision at commit v3.5.1
 linked with  NWTC Subroutine Library; ElastoDyn; InflowWind; AeroDyn; ServoDyn; HydroDyn; MAP++ (<1.20.10>, <Oct-20-2023>)

Description from the FAST input file: CCT-9 Campign 4 model. Input files to be run with OpenFAST 3.5.0. GitHub branch from Lu Wang (https://github.com/luwang00/openfast/tree/dev) compiled on March 7, 2023.

Simulation information:
   Simulation time:                  1214.3750 s
   Rotor Speed:                         0.7917 rad/s
   Azimuth:                             2.8102 rad
   Wind Speed:                         16.0000 m/s
   Number of continuous states:         0
   Number of discrete states:           0
   Number of constraint states:         0
   Number of inputs:                   37
   Number of outputs:                   7
   Jacobians included in this file?    No

Order of inputs:
     Column   Operating Point                                                   Rotating Frame? Derivative Order Description
   ---------- ---------------                                                   --------------- ---------------- -----------
          1     8.64555931091E+000                                                     F               0         WAMIT X translation displacement, node 1, m
          2    -6.18397116661E-001                                                     F               0         WAMIT Y translation displacement, node 1, m
          3    -1.33048906922E-001                                                     F               0         WAMIT Z translation displacement, node 1, m
          4     9.93683874607E-001,   3.40517028235E-003,  -1.12163774669E-001         F               0         WAMIT X orientation angle, node 1, rad
          5     2.36781430431E-003,   9.98680710793E-001,   5.12958541512E-002         F               0         WAMIT Y orientation angle, node 1, rad
          6     1.12190470099E-001,  -5.12374490499E-002,   9.92364883423E-001         F               0         WAMIT Z orientation angle, node 1, rad
          7     1.00737735920E-004                                                     F               0         WAMIT X translation velocity, node 1, m/s
          8    -1.14281567221E-004                                                     F               0         WAMIT Y translation velocity, node 1, m/s
          9    -3.99571983144E-003                                                     F               0         WAMIT Z translation velocity, node 1, m/s
         10     2.36709693127E-005                                                     F               0         WAMIT X rotation velocity, node 1, rad/s
         11     7.33713795853E-006                                                     F               0         WAMIT Y rotation velocity, node 1, rad/s
         12     5.42314455743E-006                                                     F               0         WAMIT Z rotation velocity, node 1, rad/s
         13    -2.29507379117E-004                                                     F               0         WAMIT X translation acceleration, node 1, m/s^2
         14    -1.08008774987E-004                                                     F               0         WAMIT Y translation acceleration, node 1, m/s^2
         15    -2.06149206497E-003                                                     F               0         WAMIT Z translation acceleration, node 1, m/s^2
         16     1.70225284819E-005                                                     F               0         WAMIT X rotation acceleration, node 1, rad/s^2
         17    -2.08116562135E-005                                                     F               0         WAMIT Y rotation acceleration, node 1, rad/s^2
         18     1.13554315249E-005                                                     F               0         WAMIT Z rotation acceleration, node 1, rad/s^2
         19     8.64555931091E+000                                                     F               0         Platform-RefPt X translation displacement, node 1, m
         20    -6.18397116661E-001                                                     F               0         Platform-RefPt Y translation displacement, node 1, m
         21    -1.33048906922E-001                                                     F               0         Platform-RefPt Z translation displacement, node 1, m
         22     9.93683874607E-001,   3.40517028235E-003,  -1.12163774669E-001         F               0         Platform-RefPt X orientation angle, node 1, rad
         23     2.36781430431E-003,   9.98680710793E-001,   5.12958541512E-002         F               0         Platform-RefPt Y orientation angle, node 1, rad
         24     1.12190470099E-001,  -5.12374490499E-002,   9.92364883423E-001         F               0         Platform-RefPt Z orientation angle, node 1, rad
         25     1.00737735920E-004                                                     F               0         Platform-RefPt X translation velocity, node 1, m/s
         26    -1.14281567221E-004                                                     F               0         Platform-RefPt Y translation velocity, node 1, m/s
         27    -3.99571983144E-003                                                     F               0         Platform-RefPt Z translation velocity, node 1, m/s
         28     2.36709693127E-005                                                     F               0         Platform-RefPt X rotation velocity, node 1, rad/s
         29     7.33713795853E-006                                                     F               0         Platform-RefPt Y rotation velocity, node 1, rad/s
         30     5.42314455743E-006                                                     F               0         Platform-RefPt Z rotation velocity, node 1, rad/s
         31    -2.29507379117E-004                                                     F               0         Platform-RefPt X translation acceleration, node 1, m/s^2
         32    -1.08008774987E-004                                                     F               0         Platform-RefPt Y translation acceleration, node 1, m/s^2
         33    -2.06149206497E-003                                                     F               0         Platform-RefPt Z translation acceleration, node 1, m/s^2
         34     1.70225284819E-005                                                     F               0         Platform-RefPt X rotation acceleration, node 1, rad/s^2
         35    -2.08116562135E-005                                                     F               0         Platform-RefPt Y rotation acceleration, node 1, rad/s^2
         36     1.13554315249E-005                                                     F               0         Platform-RefPt Z rotation acceleration, node 1, rad/s^2
         37     0.00000000000E+000                                                     F               0         Extended input: wave elevation at platform ref point, m

Order of outputs:
        Row   Operating Point                                                   Rotating Frame? Derivative Order Description
   ---------- ---------------                                                   --------------- ---------------- -----------
          1     0.00000000000E+000                                                     F               0         Wave1Elev, (m)
          2    -5.92168554688E+004                                                     F               0         HydroFxi, (N)
          3    -6.41203308105E+002                                                     F               0         HydroFyi, (N)
          4     2.03969856000E+008                                                     F               0         HydroFzi, (N)
          5    -1.10444424000E+008                                                     F               0         HydroMxi, (N-m)
          6    -2.41015072000E+008                                                     F               0         HydroMyi, (N-m)
          7    -2.22469765625E+005                                                     F               0         HydroMzi, (N-m)


Linearized state matrices:

D: 7 x 37
     0.00000000000E+000   0.00000000000E+000   0.00000000000E+000   0.00000000000E+000   0.00000000000E+000   0.00000000000E+000   0.00000000000E+000   0.00000000000E+000   0.00000000000E+000   0.00000000000E+000   0.00000000000E+000   0.00000000000E+000   0.00000000000E+000   0.00000000000E+000   0.00000000000E+000   0.00000000000E+000   0.00000000000E+000   0.00000000000E+000   0.00000000000E+000   0.00000000000E+000   0.00000000000E+000   0.00000000000E+000   0.00000000000E+000   0.00000000000E+000   0.00000000000E+000   0.00000000000E+000   0.00000000000E+000   0.00000000000E+000   0.00000000000E+000   0.00000000000E+000   0.00000000000E+000   0.00000000000E+000   0.00000000000E+000   0.00000000000E+000   0.00000000000E+000   0.00000000000E+000   0.00000000000E+000
    -6.85998695922E+003   0.00000000000E+000   0.00000000000E+000   0.00000000000E+000   0.00000000000E+000   0.00000000000E+000  -2.82173096459E+005   0.00000000000E+000   0.00000000000E+000   0.00000000000E+000   0.00000000000E+000   0.00000000000E+000  -9.38083896931E+006   0.00000000000E+000   1.99671965511E+001   0.00000000000E+000   9.82680280140E+007   0.00000000000E+000   0.00000000000E+000   0.00000000000E+000   0.00000000000E+000   0.00000000000E+000   0.00000000000E+000   0.00000000000E+000   0.00000000000E+000   0.00000000000E+000   0.00000000000E+000   0.00000000000E+000   0.00000000000E+000   0.00000000000E+000   0.00000000000E+000   0.00000000000E+000   0.00000000000E+000   0.00000000000E+000   0.00000000000E+000   0.00000000000E+000   0.00000000000E+000
     0.00000000000E+000   0.00000000000E+000   0.00000000000E+000   0.00000000000E+000   0.00000000000E+000   0.00000000000E+000   0.00000000000E+000  -2.82173160405E+005   0.00000000000E+000   0.00000000000E+000   0.00000000000E+000   0.00000000000E+000   0.00000000000E+000  -9.38088807999E+006   0.00000000000E+000  -9.82662446828E+007   0.00000000000E+000   1.78567942486E+003   0.00000000000E+000   0.00000000000E+000   0.00000000000E+000   0.00000000000E+000   0.00000000000E+000   0.00000000000E+000   0.00000000000E+000   0.00000000000E+000   0.00000000000E+000   0.00000000000E+000   0.00000000000E+000   0.00000000000E+000   0.00000000000E+000   0.00000000000E+000   0.00000000000E+000   0.00000000000E+000   0.00000000000E+000   0.00000000000E+000   0.00000000000E+000
     0.00000000000E+000   0.00000000000E+000  -4.39488118772E+006   0.00000000000E+000   4.12529615690E+003   0.00000000000E+000   0.00000000000E+000   0.00000000000E+000  -8.07248465846E+005   0.00000000000E+000   0.00000000000E+000   0.00000000000E+000   6.54808943743E+001   0.00000000000E+000  -2.41346206440E+007   0.00000000000E+000   1.74179171069E+004   0.00000000000E+000   0.00000000000E+000   0.00000000000E+000   0.00000000000E+000   0.00000000000E+000   0.00000000000E+000   0.00000000000E+000   0.00000000000E+000   0.00000000000E+000   0.00000000000E+000   0.00000000000E+000   0.00000000000E+000   0.00000000000E+000   0.00000000000E+000   0.00000000000E+000   0.00000000000E+000   0.00000000000E+000   0.00000000000E+000   0.00000000000E+000   0.00000000000E+000
     0.00000000000E+000   2.03969875633E+008   6.87549390930E+002  -2.13421463291E+009   0.00000000000E+000   8.88084589332E+004   0.00000000000E+000   0.00000000000E+000   0.00000000000E+000  -2.78327497925E+009   0.00000000000E+000   0.00000000000E+000   0.00000000000E+000  -9.82009770033E+007   0.00000000000E+000  -1.13246520853E+010   0.00000000000E+000   5.29413006802E+004   0.00000000000E+000  -2.03969875633E+008  -6.87549390930E+002   0.00000000000E+000   0.00000000000E+000   0.00000000000E+000   0.00000000000E+000   0.00000000000E+000   0.00000000000E+000   0.00000000000E+000   0.00000000000E+000   0.00000000000E+000   0.00000000000E+000   0.00000000000E+000   0.00000000000E+000   0.00000000000E+000   0.00000000000E+000   0.00000000000E+000   0.00000000000E+000
    -2.03969973855E+008   0.00000000000E+000  -5.52003939575E+004   0.00000000000E+000  -2.13398109531E+009   0.00000000000E+000   0.00000000000E+000   0.00000000000E+000   0.00000000000E+000   0.00000000000E+000  -2.78327429170E+009   0.00000000000E+000   9.82036617200E+007   0.00000000000E+000   1.93168638404E+004   0.00000000000E+000  -1.13240534590E+010   0.00000000000E+000   2.03969973855E+008   0.00000000000E+000   5.91292476200E+004   0.00000000000E+000   0.00000000000E+000   0.00000000000E+000   0.00000000000E+000   0.00000000000E+000   0.00000000000E+000   0.00000000000E+000   0.00000000000E+000   0.00000000000E+000   0.00000000000E+000   0.00000000000E+000   0.00000000000E+000   0.00000000000E+000   0.00000000000E+000   0.00000000000E+000   0.00000000000E+000
    -6.41316298515E+002   5.92167899485E+004   0.00000000000E+000   0.00000000000E+000   0.00000000000E+000   0.00000000000E+000   0.00000000000E+000   0.00000000000E+000   0.00000000000E+000   0.00000000000E+000  -2.23811640457E-001  -2.51327388742E+009   0.00000000000E+000   1.55370047911E+003   0.00000000000E+000   4.40407593625E+004  -2.23811640457E-001  -1.95913504720E+010   6.41316298515E+002  -5.92167899485E+004   0.00000000000E+000   0.00000000000E+000   0.00000000000E+000   0.00000000000E+000   0.00000000000E+000   0.00000000000E+000   0.00000000000E+000   0.00000000000E+000   0.00000000000E+000   0.00000000000E+000   0.00000000000E+000   0.00000000000E+000   0.00000000000E+000   0.00000000000E+000   0.00000000000E+000   0.00000000000E+000   0.00000000000E+000
