
Linearized model: Predictions were generated on 13-Feb-2024 at 11:29:37 using OpenFAST, compiled as a 64-bit application using single precision at commit v3.5.1
 linked with  NWTC Subroutine Library; ElastoDyn; InflowWind; AeroDyn; ServoDyn; HydroDyn; MAP++ (<1.20.10>, <Oct-20-2023>)

Description from the FAST input file: CCT-9 Campign 4 model. Input files to be run with OpenFAST 3.5.0. GitHub branch from Lu Wang (https://github.com/luwang00/openfast/tree/dev) compiled on March 7, 2023.

Simulation information:
   Simulation time:                  1216.1250 s
   Rotor Speed:                         0.7919 rad/s
   Azimuth:                             4.1958 rad
   Wind Speed:                         16.0000 m/s
   Number of continuous states:        14
   Number of discrete states:           0
   Number of constraint states:         0
   Number of inputs:                 1890
   Number of outputs:                  25
   Jacobians included in this file?    No

Order of continuous states:
   Row/Column Operating Point                                                   Rotating Frame? Derivative Order Description
   ---------- ---------------                                                   --------------- ---------------- -----------
          1     8.64545822144E+000                                                     F               2         Platform horizontal surge translation DOF (internal DOF index = DOF_Sg), m
          2    -6.18743836880E-001                                                     F               2         Platform horizontal sway translation DOF (internal DOF index = DOF_Sw), m
          3    -1.42550155520E-001                                                     F               2         Platform vertical heave translation DOF (internal DOF index = DOF_Hv), m
          4     5.17220497131E-002                                                     F               2         Platform roll tilt rotation DOF (internal DOF index = DOF_R), rad
          5     1.13031849265E-001                                                     F               2         Platform pitch tilt rotation DOF (internal DOF index = DOF_P), rad
          6     5.21082722116E-004                                                     F               2         Platform yaw rotation DOF (internal DOF index = DOF_Y), rad
          7     2.62496328354E+000                                                     F               2         Variable speed generator DOF (internal DOF index = DOF_GeAz), rad
          8     4.63518881588E-006                                                     F               2         First time derivative of Platform horizontal surge translation DOF (internal DOF index = DOF_Sg), m/s
          9    -4.92579827551E-004                                                     F               2         First time derivative of Platform horizontal sway translation DOF (internal DOF index = DOF_Sw), m/s
         10    -6.59509748220E-003                                                     F               2         First time derivative of Platform vertical heave translation DOF (internal DOF index = DOF_Hv), m/s
         11     5.76234779146E-005                                                     F               2         First time derivative of Platform roll tilt rotation DOF (internal DOF index = DOF_R), rad/s
         12    -5.88328077811E-007                                                     F               2         First time derivative of Platform pitch tilt rotation DOF (internal DOF index = DOF_P), rad/s
         13    -1.13172645797E-005                                                     F               2         First time derivative of Platform yaw rotation DOF (internal DOF index = DOF_Y), rad/s
         14     7.91896939278E-001                                                     F               2         First time derivative of Variable speed generator DOF (internal DOF index = DOF_GeAz), rad/s

Order of continuous state derivatives:
   Row/Column Operating Point                                                   Rotating Frame? Derivative Order Description
   ---------- ---------------                                                   --------------- ---------------- -----------
          1     4.63518881588E-006                                                     F               2         First time derivative of Platform horizontal surge translation DOF (internal DOF index = DOF_Sg), m/s
          2    -4.92579827551E-004                                                     F               2         First time derivative of Platform horizontal sway translation DOF (internal DOF index = DOF_Sw), m/s
          3    -6.59509748220E-003                                                     F               2         First time derivative of Platform vertical heave translation DOF (internal DOF index = DOF_Hv), m/s
          4     5.76234779146E-005                                                     F               2         First time derivative of Platform roll tilt rotation DOF (internal DOF index = DOF_R), rad/s
          5    -5.88328077811E-007                                                     F               2         First time derivative of Platform pitch tilt rotation DOF (internal DOF index = DOF_P), rad/s
          6    -1.13172645797E-005                                                     F               2         First time derivative of Platform yaw rotation DOF (internal DOF index = DOF_Y), rad/s
          7     7.91896939278E-001                                                     F               2         First time derivative of Variable speed generator DOF (internal DOF index = DOF_GeAz), rad/s
          8    -9.88553292700E-005                                                     F               2         First time derivative of First time derivative of Platform horizontal surge translation DOF (internal DOF index = DOF_Sg), m/s/s
          9    -5.05187723320E-004                                                     F               2         First time derivative of First time derivative of Platform horizontal sway translation DOF (internal DOF index = DOF_Sw), m/s/s
         10    -1.19021686260E-003                                                     F               2         First time derivative of First time derivative of Platform vertical heave translation DOF (internal DOF index = DOF_Hv), m/s/s
         11     3.80257843062E-005                                                     F               2         First time derivative of First time derivative of Platform roll tilt rotation DOF (internal DOF index = DOF_R), rad/s/s
         12    -5.17314333592E-007                                                     F               2         First time derivative of First time derivative of Platform pitch tilt rotation DOF (internal DOF index = DOF_P), rad/s/s
         13     2.56999737758E-006                                                     F               2         First time derivative of First time derivative of Platform yaw rotation DOF (internal DOF index = DOF_Y), rad/s/s
         14    -7.42363918107E-005                                                     F               2         First time derivative of First time derivative of Variable speed generator DOF (internal DOF index = DOF_GeAz), rad/s/s

Order of inputs:
     Column   Operating Point                                                   Rotating Frame? Derivative Order Description
   ---------- ---------------                                                   --------------- ---------------- -----------
          1     1.54888839722E+002                                                     F               0         Blade 1 X force, node 1, N
          2    -1.11323013306E+001                                                     F               0         Blade 1 Y force, node 1, N
          3    -5.97372016907E+001                                                     F               0         Blade 1 Z force, node 1, N
          4     6.30774475098E+002                                                     F               0         Blade 1 X force, node 2, N
          5    -1.60438003540E+001                                                     F               0         Blade 1 Y force, node 2, N
          6    -1.83401214600E+002                                                     F               0         Blade 1 Z force, node 2, N
          7     7.53402282715E+002                                                     F               0         Blade 1 X force, node 3, N
          8     3.41408271790E+001                                                     F               0         Blade 1 Y force, node 3, N
          9    -1.10099258423E+002                                                     F               0         Blade 1 Z force, node 3, N
         10     9.42204467773E+002                                                     F               0         Blade 1 X force, node 4, N
         11     8.31911468506E+001                                                     F               0         Blade 1 Y force, node 4, N
         12    -5.49159660339E+001                                                     F               0         Blade 1 Z force, node 4, N
         13     1.13101501465E+003                                                     F               0         Blade 1 X force, node 5, N
         14     1.32242568970E+002                                                     F               0         Blade 1 Y force, node 5, N
         15     2.67566651106E-001                                                     F               0         Blade 1 Z force, node 5, N
         16     1.31981909180E+003                                                     F               0         Blade 1 X force, node 6, N
         17     1.81293411255E+002                                                     F               0         Blade 1 Y force, node 6, N
         18     5.54514579773E+001                                                     F               0         Blade 1 Z force, node 6, N
         19     1.50861328125E+003                                                     F               0         Blade 1 X force, node 7, N
         20     2.30342742920E+002                                                     F               0         Blade 1 Y force, node 7, N
         21     1.10634628296E+002                                                     F               0         Blade 1 Z force, node 7, N
         22     1.69741540527E+003                                                     F               0         Blade 1 X force, node 8, N
         23     2.79393035889E+002                                                     F               0         Blade 1 Y force, node 8, N
         24     1.65817916870E+002                                                     F               0         Blade 1 Z force, node 8, N
         25     1.88621765137E+003                                                     F               0         Blade 1 X force, node 9, N
         26     3.28443420410E+002                                                     F               0         Blade 1 Y force, node 9, N
         27     2.21001205444E+002                                                     F               0         Blade 1 Z force, node 9, N
         28     2.07501977539E+003                                                     F               0         Blade 1 X force, node 10, N
         29     3.77493682861E+002                                                     F               0         Blade 1 Y force, node 10, N
         30     2.76184478760E+002                                                     F               0         Blade 1 Z force, node 10, N
         31     2.26382202148E+003                                                     F               0         Blade 1 X force, node 11, N
         32     4.26544036865E+002                                                     F               0         Blade 1 Y force, node 11, N
         33     3.31367767334E+002                                                     F               0         Blade 1 Z force, node 11, N
         34     2.45264135742E+003                                                     F               0         Blade 1 X force, node 12, N
         35     4.75597686768E+002                                                     F               0         Blade 1 Y force, node 12, N
         36     3.86553924561E+002                                                     F               0         Blade 1 Z force, node 12, N
         37     2.64144531250E+003                                                     F               0         Blade 1 X force, node 13, N
         38     5.24648559570E+002                                                     F               0         Blade 1 Y force, node 13, N
         39     4.41737823486E+002                                                     F               0         Blade 1 Z force, node 13, N
         40     2.83023095703E+003                                                     F               0         Blade 1 X force, node 14, N
         41     5.73695678711E+002                                                     F               0         Blade 1 Y force, node 14, N
         42     4.96918457031E+002                                                     F               0         Blade 1 Z force, node 14, N
         43     3.01905322266E+003                                                     F               0         Blade 1 X force, node 15, N
         44     6.22750122070E+002                                                     F               0         Blade 1 Y force, node 15, N
         45     5.52105468750E+002                                                     F               0         Blade 1 Z force, node 15, N
         46     3.20783447266E+003                                                     F               0         Blade 1 X force, node 16, N
         47     6.71796081543E+002                                                     F               0         Blade 1 Y force, node 16, N
         48     6.07284790039E+002                                                     F               0         Blade 1 Z force, node 16, N
         49     3.93970068359E+003                                                     F               0         Blade 1 X force, node 17, N
         50     8.35928466797E+002                                                     F               0         Blade 1 Y force, node 17, N
         51     7.68039978027E+002                                                     F               0         Blade 1 Z force, node 17, N
         52     3.01391186523E+003                                                     F               0         Blade 1 X force, node 18, N
         53     6.41305358887E+002                                                     F               0         Blade 1 Y force, node 18, N
         54     5.91261413574E+002                                                     F               0         Blade 1 Z force, node 18, N
         55     3.70990209961E+003                                                     F               0         Blade 1 X force, node 19, N
         56     7.88391113281E+002                                                     F               0         Blade 1 Y force, node 19, N
         57     7.25737670898E+002                                                     F               0         Blade 1 Z force, node 19, N
         58     3.17203100586E+003                                                     F               0         Blade 1 X force, node 20, N
         59     6.73296447754E+002                                                     F               0         Blade 1 Y force, node 20, N
         60     6.18900329590E+002                                                     F               0         Blade 1 Z force, node 20, N
         61     4.83817675781E+003                                                     F               0         Blade 1 X force, node 21, N
         62     1.02812683105E+003                                                     F               0         Blade 1 Y force, node 21, N
         63     9.46384094238E+002                                                     F               0         Blade 1 Z force, node 21, N
         64     4.62646240234E+003                                                     F               0         Blade 1 X force, node 22, N
         65     9.88066467285E+002                                                     F               0         Blade 1 Y force, node 22, N
         66     9.15047546387E+002                                                     F               0         Blade 1 Z force, node 22, N
         67     5.08977392578E+003                                                     F               0         Blade 1 X force, node 23, N
         68     1.09140625000E+003                                                     F               0         Blade 1 Y force, node 23, N
         69     1.01565930176E+003                                                     F               0         Blade 1 Z force, node 23, N
         70     5.58410595703E+003                                                     F               0         Blade 1 X force, node 24, N
         71     1.19601770020E+003                                                     F               0         Blade 1 Y force, node 24, N
         72     1.11146411133E+003                                                     F               0         Blade 1 Z force, node 24, N
         73     5.73523974609E+003                                                     F               0         Blade 1 X force, node 25, N
         74     1.20602917480E+003                                                     F               0         Blade 1 Y force, node 25, N
         75     1.09584289551E+003                                                     F               0         Blade 1 Z force, node 25, N
         76     5.85820605469E+003                                                     F               0         Blade 1 X force, node 26, N
         77     1.20495605469E+003                                                     F               0         Blade 1 Y force, node 26, N
         78     1.06428906250E+003                                                     F               0         Blade 1 Z force, node 26, N
         79     6.96126855469E+003                                                     F               0         Blade 1 X force, node 27, N
         80     1.39917651367E+003                                                     F               0         Blade 1 Y force, node 27, N
         81     1.19791845703E+003                                                     F               0         Blade 1 Z force, node 27, N
         82     5.11037207031E+003                                                     F               0         Blade 1 X force, node 28, N
         83     1.00357495117E+003                                                     F               0         Blade 1 Y force, node 28, N
         84     8.31207275391E+002                                                     F               0         Blade 1 Z force, node 28, N
         85     6.19608544922E+003                                                     F               0         Blade 1 X force, node 29, N
         86     1.19277050781E+003                                                     F               0         Blade 1 Y force, node 29, N
         87     9.58707641602E+002                                                     F               0         Blade 1 Z force, node 29, N
         88     5.22657910156E+003                                                     F               0         Blade 1 X force, node 30, N
         89     9.86568481445E+002                                                     F               0         Blade 1 Y force, node 30, N
         90     7.68698730469E+002                                                     F               0         Blade 1 Z force, node 30, N
         91     7.47483251953E+003                                                     F               0         Blade 1 X force, node 31, N
         92     1.37844604492E+003                                                     F               0         Blade 1 Y force, node 31, N
         93     1.03292346191E+003                                                     F               0         Blade 1 Z force, node 31, N
         94     6.49575732422E+003                                                     F               0         Blade 1 X force, node 32, N
         95     1.16929711914E+003                                                     F               0         Blade 1 Y force, node 32, N
         96     8.39175537109E+002                                                     F               0         Blade 1 Z force, node 32, N
         97     6.58910888672E+003                                                     F               0         Blade 1 X force, node 33, N
         98     1.15958361816E+003                                                     F               0         Blade 1 Y force, node 33, N
         99     7.97031250000E+002                                                     F               0         Blade 1 Z force, node 33, N
        100     6.68333789062E+003                                                     F               0         Blade 1 X force, node 34, N
        101     1.14990197754E+003                                                     F               0         Blade 1 Y force, node 34, N
        102     7.54742797852E+002                                                     F               0         Blade 1 Z force, node 34, N
        103     6.77430371094E+003                                                     F               0         Blade 1 X force, node 35, N
        104     1.13916027832E+003                                                     F               0         Blade 1 Y force, node 35, N
        105     7.11066406250E+002                                                     F               0         Blade 1 Z force, node 35, N
        106     6.86265283203E+003                                                     F               0         Blade 1 X force, node 36, N
        107     1.12785009766E+003                                                     F               0         Blade 1 Y force, node 36, N
        108     6.66852722168E+002                                                     F               0         Blade 1 Z force, node 36, N
        109     8.12683740234E+003                                                     F               0         Blade 1 X force, node 37, N
        110     1.30351330566E+003                                                     F               0         Blade 1 Y force, node 37, N
        111     7.24079284668E+002                                                     F               0         Blade 1 Z force, node 37, N
        112     5.84667871094E+003                                                     F               0         Blade 1 X force, node 38, N
        113     9.15584106445E+002                                                     F               0         Blade 1 Y force, node 38, N
        114     4.75543670654E+002                                                     F               0         Blade 1 Z force, node 38, N
        115     7.08525048828E+003                                                     F               0         Blade 1 X force, node 39, N
        116     1.08714025879E+003                                                     F               0         Blade 1 Y force, node 39, N
        117     5.30490539551E+002                                                     F               0         Blade 1 Z force, node 39, N
        118     5.97521191406E+003                                                     F               0         Blade 1 X force, node 40, N
        119     8.98146606445E+002                                                     F               0         Blade 1 Y force, node 40, N
        120     4.09211212158E+002                                                     F               0         Blade 1 Z force, node 40, N
        121     8.37273925781E+003                                                     F               0         Blade 1 X force, node 41, N
        122     1.22902258301E+003                                                     F               0         Blade 1 Y force, node 41, N
        123     5.13102355957E+002                                                     F               0         Blade 1 Z force, node 41, N
        124     7.24149951172E+003                                                     F               0         Blade 1 X force, node 42, N
        125     1.03868579102E+003                                                     F               0         Blade 1 Y force, node 42, N
        126     3.94139038086E+002                                                     F               0         Blade 1 Z force, node 42, N
        127     7.28096191406E+003                                                     F               0         Blade 1 X force, node 43, N
        128     1.02172778320E+003                                                     F               0         Blade 1 Y force, node 43, N
        129     3.50053527832E+002                                                     F               0         Blade 1 Z force, node 43, N
        130     7.35522167969E+003                                                     F               0         Blade 1 X force, node 44, N
        131     1.00977392578E+003                                                     F               0         Blade 1 Y force, node 44, N
        132     3.07888275146E+002                                                     F               0         Blade 1 Z force, node 44, N
        133     7.29828710938E+003                                                     F               0         Blade 1 X force, node 45, N
        134     9.81017639160E+002                                                     F               0         Blade 1 Y force, node 45, N
        135     2.62702148438E+002                                                     F               0         Blade 1 Z force, node 45, N
        136     7.35305419922E+003                                                     F               0         Blade 1 X force, node 46, N
        137     9.67764282227E+002                                                     F               0         Blade 1 Y force, node 46, N
        138     2.22534988403E+002                                                     F               0         Blade 1 Z force, node 46, N
        139     8.65178222656E+003                                                     F               0         Blade 1 X force, node 47, N
        140     1.11297448730E+003                                                     F               0         Blade 1 Y force, node 47, N
        141     2.09265121460E+002                                                     F               0         Blade 1 Z force, node 47, N
        142     6.09099902344E+003                                                     F               0         Blade 1 X force, node 48, N
        143     7.66725158691E+002                                                     F               0         Blade 1 Y force, node 48, N
        144     1.12929824829E+002                                                     F               0         Blade 1 Z force, node 48, N
        145     7.37353564453E+003                                                     F               0         Blade 1 X force, node 49, N
        146     9.11509643555E+002                                                     F               0         Blade 1 Y force, node 49, N
        147     1.02655982971E+002                                                     F               0         Blade 1 Z force, node 49, N
        148     6.21148193359E+003                                                     F               0         Blade 1 X force, node 50, N
        149     7.53646240234E+002                                                     F               0         Blade 1 Y force, node 50, N
        150     5.74286193848E+001                                                     F               0         Blade 1 Z force, node 50, N
        151     8.52772265625E+003                                                     F               0         Blade 1 X force, node 51, N
        152     1.01244287109E+003                                                     F               0         Blade 1 Y force, node 51, N
        153     3.33922729492E+001                                                     F               0         Blade 1 Z force, node 51, N
        154     7.35208886719E+003                                                     F               0         Blade 1 X force, node 52, N
        155     8.54373229980E+002                                                     F               0         Blade 1 Y force, node 52, N
        156    -9.01450061798E+000                                                     F               0         Blade 1 Z force, node 52, N
        157     7.33667968750E+003                                                     F               0         Blade 1 X force, node 53, N
        158     8.35186218262E+002                                                     F               0         Blade 1 Y force, node 53, N