
Linearized model: Predictions were generated on 31-Jan-2024 at 12:35:17 using OpenFAST, compiled as a 64-bit application using single precision at commit v3.5.1
 linked with  NWTC Subroutine Library; ElastoDyn; InflowWind; AeroDyn; ServoDyn; HydroDyn; MAP++ (<1.20.10>, <Oct-20-2023>)

Description from the FAST input file: CCT-9 Campign 4 model. Input files to be run with OpenFAST 3.5.0. GitHub branch from Lu Wang (https://github.com/luwang00/openfast/tree/dev) compiled on March 7, 2023.

Simulation information:
   Simulation time:                   503.2250 s
   Rotor Speed:                         0.8939 rad/s
   Azimuth:                             3.6283 rad
   Wind Speed:                         10.0000 m/s
   Number of continuous states:        12
   Number of discrete states:           0
   Number of constraint states:         0
   Number of inputs:                 1890
   Number of outputs:                  19
   Jacobians included in this file?    No

Order of continuous states:
   Row/Column Operating Point                     Rotating Frame? Derivative Order Description
   ---------- ---------------                     --------------- ---------------- -----------
          1    8.171E+00                                 F               2         Platform horizontal surge translation DOF (internal DOF index = DOF_Sg), m
          2   -5.892E-02                                 F               2         Platform vertical heave translation DOF (internal DOF index = DOF_Hv), m
          3    7.095E-03                                 F               2         Platform yaw rotation DOF (internal DOF index = DOF_Y), rad
          4    3.840E-01                                 F               2         1st tower fore-aft bending mode DOF (internal DOF index = DOF_TFA1), m
          5    1.290E-03                                 F               2         2nd tower fore-aft bending mode DOF (internal DOF index = DOF_TFA2), m
          6    2.058E+00                                 F               2         Variable speed generator DOF (internal DOF index = DOF_GeAz), rad
          7   -1.042E-03                                 F               2         First time derivative of Platform horizontal surge translation DOF (internal DOF index = DOF_Sg), m/s
          8   -6.029E-03                                 F               2         First time derivative of Platform vertical heave translation DOF (internal DOF index = DOF_Hv), m/s
          9    4.186E-06                                 F               2         First time derivative of Platform yaw rotation DOF (internal DOF index = DOF_Y), rad/s
         10   -6.604E-04                                 F               2         First time derivative of 1st tower fore-aft bending mode DOF (internal DOF index = DOF_TFA1), m/s
         11    1.394E-06                                 F               2         First time derivative of 2nd tower fore-aft bending mode DOF (internal DOF index = DOF_TFA2), m/s
         12    8.939E-01                                 F               2         First time derivative of Variable speed generator DOF (internal DOF index = DOF_GeAz), rad/s

Order of continuous state derivatives:
   Row/Column Operating Point                     Rotating Frame? Derivative Order Description
   ---------- ---------------                     --------------- ---------------- -----------
          1   -1.042E-03                                 F               2         First time derivative of Platform horizontal surge translation DOF (internal DOF index = DOF_Sg), m/s
          2   -6.029E-03                                 F               2         First time derivative of Platform vertical heave translation DOF (internal DOF index = DOF_Hv), m/s
          3    4.186E-06                                 F               2         First time derivative of Platform yaw rotation DOF (internal DOF index = DOF_Y), rad/s
          4   -6.604E-04                                 F               2         First time derivative of 1st tower fore-aft bending mode DOF (internal DOF index = DOF_TFA1), m/s
          5    1.394E-06                                 F               2         First time derivative of 2nd tower fore-aft bending mode DOF (internal DOF index = DOF_TFA2), m/s
          6    8.939E-01                                 F               2         First time derivative of Variable speed generator DOF (internal DOF index = DOF_GeAz), rad/s
          7   -4.686E-04                                 F               2         First time derivative of First time derivative of Platform horizontal surge translation DOF (internal DOF index = DOF_Sg), m/s/s
          8   -1.829E-03                                 F               2         First time derivative of First time derivative of Platform vertical heave translation DOF (internal DOF index = DOF_Hv), m/s/s
          9    6.596E-07                                 F               2         First time derivative of First time derivative of Platform yaw rotation DOF (internal DOF index = DOF_Y), rad/s/s
         10    8.427E-04                                 F               2         First time derivative of First time derivative of 1st tower fore-aft bending mode DOF (internal DOF index = DOF_TFA1), m/s/s
         11   -2.331E-06                                 F               2         First time derivative of First time derivative of 2nd tower fore-aft bending mode DOF (internal DOF index = DOF_TFA2), m/s/s
         12    1.080E-04                                 F               2         First time derivative of First time derivative of Variable speed generator DOF (internal DOF index = DOF_GeAz), rad/s/s

Order of inputs:
     Column   Operating Point                     Rotating Frame? Derivative Order Description
   ---------- ---------------                     --------------- ---------------- -----------
          1    6.946E+01                                 F               0         Blade 1 X force, node 1, N
          2   -5.865E+01                                 F               0         Blade 1 Y force, node 1, N
          3   -4.398E+01                                 F               0         Blade 1 Z force, node 1, N
          4    3.110E+02                                 F               0         Blade 1 X force, node 2, N
          5   -1.111E+02                                 F               0         Blade 1 Y force, node 2, N
          6   -1.076E+02                                 F               0         Blade 1 Z force, node 2, N
          7    4.219E+02                                 F               0         Blade 1 X force, node 3, N
          8   -5.549E+01                                 F               0         Blade 1 Y force, node 3, N
          9   -8.980E+01                                 F               0         Blade 1 Z force, node 3, N
         10    5.660E+02                                 F               0         Blade 1 X force, node 4, N
         11   -1.313E+01                                 F               0         Blade 1 Y force, node 4, N
         12   -8.432E+01                                 F               0         Blade 1 Z force, node 4, N
         13    7.101E+02                                 F               0         Blade 1 X force, node 5, N
         14    2.922E+01                                 F               0         Blade 1 Y force, node 5, N
         15   -7.884E+01                                 F               0         Blade 1 Z force, node 5, N
         16    8.541E+02                                 F               0         Blade 1 X force, node 6, N
         17    7.157E+01                                 F               0         Blade 1 Y force, node 6, N
         18   -7.336E+01                                 F               0         Blade 1 Z force, node 6, N
         19    9.982E+02                                 F               0         Blade 1 X force, node 7, N
         20    1.139E+02                                 F               0         Blade 1 Y force, node 7, N
         21   -6.788E+01                                 F               0         Blade 1 Z force, node 7, N
         22    1.142E+03                                 F               0         Blade 1 X force, node 8, N
         23    1.563E+02                                 F               0         Blade 1 Y force, node 8, N
         24   -6.239E+01                                 F               0         Blade 1 Z force, node 8, N
         25    1.286E+03                                 F               0         Blade 1 X force, node 9, N
         26    1.986E+02                                 F               0         Blade 1 Y force, node 9, N
         27   -5.691E+01                                 F               0         Blade 1 Z force, node 9, N
         28    1.430E+03                                 F               0         Blade 1 X force, node 10, N
         29    2.410E+02                                 F               0         Blade 1 Y force, node 10, N
         30   -5.143E+01                                 F               0         Blade 1 Z force, node 10, N
         31    1.574E+03                                 F               0         Blade 1 X force, node 11, N
         32    2.833E+02                                 F               0         Blade 1 Y force, node 11, N
         33   -4.595E+01                                 F               0         Blade 1 Z force, node 11, N
         34    1.719E+03                                 F               0         Blade 1 X force, node 12, N
         35    3.257E+02                                 F               0         Blade 1 Y force, node 12, N
         36   -4.047E+01                                 F               0         Blade 1 Z force, node 12, N
         37    1.863E+03                                 F               0         Blade 1 X force, node 13, N
         38    3.681E+02                                 F               0         Blade 1 Y force, node 13, N
         39   -3.499E+01                                 F               0         Blade 1 Z force, node 13, N
         40    2.007E+03                                 F               0         Blade 1 X force, node 14, N
         41    4.104E+02                                 F               0         Blade 1 Y force, node 14, N
         42   -2.951E+01                                 F               0         Blade 1 Z force, node 14, N
         43    2.151E+03                                 F               0         Blade 1 X force, node 15, N
         44    4.528E+02                                 F               0         Blade 1 Y force, node 15, N
         45   -2.403E+01                                 F               0         Blade 1 Z force, node 15, N
         46    2.295E+03                                 F               0         Blade 1 X force, node 16, N
         47    4.951E+02                                 F               0         Blade 1 Y force, node 16, N
         48   -1.855E+01                                 F               0         Blade 1 Z force, node 16, N
         49    2.829E+03                                 F               0         Blade 1 X force, node 17, N
         50    6.210E+02                                 F               0         Blade 1 Y force, node 17, N
         51   -1.664E+01                                 F               0         Blade 1 Z force, node 17, N
         52    2.170E+03                                 F               0         Blade 1 X force, node 18, N
         53    4.605E+02                                 F               0         Blade 1 Y force, node 18, N
         54   -2.205E+01                                 F               0         Blade 1 Z force, node 18, N
         55    2.675E+03                                 F               0         Blade 1 X force, node 19, N
         56    5.410E+02                                 F               0         Blade 1 Y force, node 19, N
         57   -4.293E+01                                 F               0         Blade 1 Z force, node 19, N
         58    2.291E+03                                 F               0         Blade 1 X force, node 20, N
         59    4.423E+02                                 F               0         Blade 1 Y force, node 20, N
         60   -4.910E+01                                 F               0         Blade 1 Z force, node 20, N
         61    3.399E+03                                 F               0         Blade 1 X force, node 21, N
         62    6.220E+02                                 F               0         Blade 1 Y force, node 21, N
         63   -9.312E+01                                 F               0         Blade 1 Z force, node 21, N
         64    3.014E+03                                 F               0         Blade 1 X force, node 22, N
         65    5.226E+02                                 F               0         Blade 1 Y force, node 22, N
         66   -9.965E+01                                 F               0         Blade 1 Z force, node 22, N
         67    3.108E+03                                 F               0         Blade 1 X force, node 23, N
         68    5.130E+02                                 F               0         Blade 1 Y force, node 23, N
         69   -1.180E+02                                 F               0         Blade 1 Z force, node 23, N
         70    3.257E+03                                 F               0         Blade 1 X force, node 24, N
         71    5.122E+02                                 F               0         Blade 1 Y force, node 24, N
         72   -1.387E+02                                 F               0         Blade 1 Z force, node 24, N
         73    3.350E+03                                 F               0         Blade 1 X force, node 25, N
         74    5.021E+02                                 F               0         Blade 1 Y force, node 25, N
         75   -1.572E+02                                 F               0         Blade 1 Z force, node 25, N
         76    3.461E+03                                 F               0         Blade 1 X force, node 26, N
         77    4.948E+02                                 F               0         Blade 1 Y force, node 26, N
         78   -1.765E+02                                 F               0         Blade 1 Z force, node 26, N
         79    4.161E+03                                 F               0         Blade 1 X force, node 27, N
         80    5.663E+02                                 F               0         Blade 1 Y force, node 27, N
         81   -2.290E+02                                 F               0         Blade 1 Z force, node 27, N
         82    3.094E+03                                 F               0         Blade 1 X force, node 28, N
         83    4.014E+02                                 F               0         Blade 1 Y force, node 28, N
         84   -1.820E+02                                 F               0         Blade 1 Z force, node 28, N
         85    3.794E+03                                 F               0         Blade 1 X force, node 29, N
         86    4.727E+02                                 F               0         Blade 1 Y force, node 29, N
         87   -2.346E+02                                 F               0         Blade 1 Z force, node 29, N
         88    3.235E+03                                 F               0         Blade 1 X force, node 30, N
         89    3.873E+02                                 F               0         Blade 1 Y force, node 30, N
         90   -2.094E+02                                 F               0         Blade 1 Z force, node 30, N
         91    4.686E+03                                 F               0         Blade 1 X force, node 31, N
         92    5.355E+02                                 F               0         Blade 1 Y force, node 31, N
         93   -3.183E+02                                 F               0         Blade 1 Z force, node 31, N
         94    4.127E+03                                 F               0         Blade 1 X force, node 32, N
         95    4.499E+02                                 F               0         Blade 1 Y force, node 32, N
         96   -2.931E+02                                 F               0         Blade 1 Z force, node 32, N
         97    4.237E+03                                 F               0         Blade 1 X force, node 33, N
         98    4.420E+02                                 F               0         Blade 1 Y force, node 33, N
         99   -3.125E+02                                 F               0         Blade 1 Z force, node 33, N
        100    4.348E+03                                 F               0         Blade 1 X force, node 34, N
        101    4.343E+02                                 F               0         Blade 1 Y force, node 34, N
        102   -3.321E+02                                 F               0         Blade 1 Z force, node 34, N
        103    4.458E+03                                 F               0         Blade 1 X force, node 35, N
        104    4.265E+02                                 F               0         Blade 1 Y force, node 35, N
        105   -3.517E+02                                 F               0         Blade 1 Z force, node 35, N
        106    4.568E+03                                 F               0         Blade 1 X force, node 36, N
        107    4.186E+02                                 F               0         Blade 1 Y force, node 36, N
        108   -3.712E+02                                 F               0         Blade 1 Z force, node 36, N
        109    5.474E+03                                 F               0         Blade 1 X force, node 37, N
        110    4.793E+02                                 F               0         Blade 1 Y force, node 37, N
        111   -4.580E+02                                 F               0         Blade 1 Z force, node 37, N
        112    3.994E+03                                 F               0         Blade 1 X force, node 38, N
        113    3.343E+02                                 F               0         Blade 1 Y force, node 38, N
        114   -3.432E+02                                 F               0         Blade 1 Z force, node 38, N
        115    4.901E+03                                 F               0         Blade 1 X force, node 39, N
        116    3.951E+02                                 F               0         Blade 1 Y force, node 39, N
        117   -4.301E+02                                 F               0         Blade 1 Z force, node 39, N
        118    4.184E+03                                 F               0         Blade 1 X force, node 40, N
        119    3.248E+02                                 F               0         Blade 1 Y force, node 40, N
        120   -3.746E+02                                 F               0         Blade 1 Z force, node 40, N
        121    5.951E+03                                 F               0         Blade 1 X force, node 41, N
        122    4.418E+02                                 F               0         Blade 1 Y force, node 41, N
        123   -5.446E+02                                 F               0         Blade 1 Z force, node 41, N
        124    5.233E+03                                 F               0         Blade 1 X force, node 42, N
        125    3.713E+02                                 F               0         Blade 1 Y force, node 42, N
        126   -4.890E+02                                 F               0         Blade 1 Z force, node 42, N
        127    5.342E+03                                 F               0         Blade 1 X force, node 43, N
        128    3.632E+02                                 F               0         Blade 1 Y force, node 43, N
        129   -5.086E+02                                 F               0         Blade 1 Z force, node 43, N
        130    5.481E+03                                 F               0         Blade 1 X force, node 44, N
        131    3.569E+02                                 F               0         Blade 1 Y force, node 44, N
        132   -5.311E+02                                 F               0         Blade 1 Z force, node 44, N
        133    5.533E+03                                 F               0         Blade 1 X force, node 45, N
        134    3.451E+02                                 F               0         Blade 1 Y force, node 45, N
        135   -5.450E+02                                 F               0         Blade 1 Z force, node 45, N
        136    5.672E+03                                 F               0         Blade 1 X force, node 46, N
        137    3.389E+02                                 F               0         Blade 1 Y force, node 46, N
        138   -5.675E+02                                 F               0         Blade 1 Z force, node 46, N
        139    6.796E+03                                 F               0         Blade 1 X force, node 47, N
        140    3.877E+02                                 F               0         Blade 1 Y force, node 47, N
        141   -6.908E+02                                 F               0         Blade 1 Z force, node 47, N
        142    4.876E+03                                 F               0         Blade 1 X force, node 48, N
        143    2.657E+02                                 F               0         Blade 1 Y force, node 48, N
        144   -5.030E+02                                 F               0         Blade 1 Z force, node 48, N
        145    6.000E+03                                 F               0         Blade 1 X force, node 49, N
        146    3.144E+02                                 F               0         Blade 1 Y force, node 49, N
        147   -6.264E+02                                 F               0         Blade 1 Z force, node 49, N
        148    5.137E+03                                 F               0         Blade 1 X force, node 50, N
        149    2.587E+02                                 F               0         Blade 1 Y force, node 50, N
        150   -5.425E+02                                 F               0         Blade 1 Z force, node 50, N
        151    7.191E+03                                 F               0         Blade 1 X force, node 51, N
        152    3.456E+02                                 F               0         Blade 1 Y force, node 51, N
        153   -7.691E+02                                 F               0         Blade 1 Z force, node 51, N
        154    6.330E+03                                 F               0         Blade 1 X force, node 52, N
        155    2.901E+02                                 F               0         Blade 1 Y force, node 52, N
        156   -6.854E+02                                 F               0         Blade 1 Z force, node 52, N
        157    6.441E+03                                 F               0         Blade 1 X force, node 53, N
        158    2.820E+02                                 F               0         Blade 1 Y force, node 53, N
        159   -7.051E+02                                 F               0         Blade 1 Z force, node 53, N
        160    6.624E+03                                 F               0         Blade 1 X force, node 54, N
        161    2.770E+02                                 F               0         Blade 1 Y force, node 54, N
        162   -7.329E+02                                 F               0         Blade 1 Z force, node 54, N
        163    6.590E+03                                 F               0         Blade 1 X force, node 55, N
        164    2.629E+02                                 F               0         Blade 1 Y force, node 55, N
        165   -7.366E+02                                 F               0         Blade 1 Z force, node 55, N
        166    6.773E+03                                 F               0         Blade 1 X force, node 56, N
        167    2.578E+02                                 F               0         Blade 1 Y force, node 56, N
        168   -7.643E+02                                 F               0         Blade 1 Z force, node 56, N
        169    8.129E+03                                 F               0         Blade 1 X force, node 57, N
        170    2.939E+02                                 F               0         Blade 1 Y force, node 57, N
        171   -9.265E+02                                 F               0         Blade 1 Z force, node 57, N
        172    5.748E+03                                 F               0         Blade 1 X force, node 58, N
        173    1.973E+02                                 F               0         Blade 1 Y force, node 58, N
        174   -6.612E+02                                 F               0         Blade 1 Z force, node 58, N
        175    7.104E+03                                 F               0         Blade 1 X force, node 59, N
        176    2.334E+02                                 F               0         Blade 1 Y force, node 59, N
        177   -8.235E+02                                 F               0         Blade 1 Z force, node 59, N
        178    6.110E+03                                 F               0         Blade 1 X force, node 60, N
        179    1.918E+02                                 F               0         Blade 1 Y force, node 60, N
        180   -7.136E+02                                 F               0         Blade 1 Z force, node 60, N
        181    8.429E+03                                 F               0         Blade 1 X force, node 61, N
        182    2.506E+02                                 F               0         Blade 1 Y force, node 61, N
        183   -9.927E+02                                 F               0         Blade 1 Z force, node 61, N
        184    7.433E+03                                 F               0         Blade 1 X force, node 62, N
        185    2.087E+02                                 F               0         Blade 1 Y force, node 62, N
        186   -8.825E+02                                 F               0         Blade 1 Z force, node 62, N
        187    7.541E+03                                 F               0         Blade 1 X force, node 63, N
        188    2.004E+02                                 F               0         Blade 1 Y force, node 63, N
        189   -9.021E+02                                 F               0         Blade 1 Z force, node 63, N
        190    7.778E+03                                 F               0         Blade 1 X force, node 64, N
        191    1.953E+02                                 F               0         Blade 1 Y force, node 64, N
        192   -9.371E+02                                 F               0         Blade 1 Z force, node 64, N
        193    7.633E+03                                 F               0         Blade 1 X force, node 65, N
        194    1.809E+02                                 F               0         Blade 1 Y force, node 65, N
        195   -9.260E+02                                 F               0         Blade 1 Z force, node 65, N
        196    7.873E+03                                 F               0         Blade 1 X force, node 66, N
        197    1.760E+02                                 F               0         Blade 1 Y force, node 66, N
        198   -9.614E+02                                 F               0         Blade 1 Z force, node 66, N
        199    9.473E+03                                 F               0         Blade 1 X force, node 67, N
        200    1.983E+02                                 F               0         Blade 1 Y force, node 67, N
        201   -1.165E+03                                 F               0         Blade 1 Z force, node 67, N
        202    6.608E+03                                 F               0         Blade 1 X force, node 68, N
        203    1.293E+02                                 F               0         Blade 1 Y force, node 68, N
        204   -8.178E+02                                 F               0         Blade 1 Z force, node 68, N
        205    8.206E+03                                 F               0         Blade 1 X force, node 69, N
        206    1.515E+02                                 F               0         Blade 1 Y force, node 69, N
        207   -1.021E+03                                 F               0         Blade 1 Z force, node 69, N
        208    7.092E+03                                 F               0         Blade 1 X force, node 70, N
        209    1.230E+02                                 F               0         Blade 1 Y force, node 70, N
        210   -8.869E+02                                 F               0         Blade 1 Z force, node 70, N
        211    9.649E+03                                 F               0         Blade 1 X force, node 71, N
        212    1.550E+02                                 F               0         Blade 1 Y force, node 71, N
        213   -1.214E+03                                 F               0         Blade 1 Z force, node 71, N
        214    8.531E+03                                 F               0         Blade 1 X force, node 72, N
        215    1.262E+02                                 F               0         Blade 1 Y force, node 72, N
        216   -1.080E+03                                 F               0         Blade 1 Z force, node 72, N
        217    8.637E+03                                 F               0         Blade 1 X force, node 73, N