
Linearized model: Predictions were generated on 13-Feb-2024 at 11:29:37 using OpenFAST, compiled as a 64-bit application using single precision at commit v3.5.1
 linked with  NWTC Subroutine Library; ElastoDyn; InflowWind; AeroDyn; ServoDyn; HydroDyn; MAP++ (<1.20.10>, <Oct-20-2023>)

Description from the FAST input file: CCT-9 Campign 4 model. Input files to be run with OpenFAST 3.5.0. GitHub branch from Lu Wang (https://github.com/luwang00/openfast/tree/dev) compiled on March 7, 2023.

Simulation information:
   Simulation time:                  1217.4500 s
   Rotor Speed:                         0.7916 rad/s
   Azimuth:                             5.2449 rad
   Wind Speed:                         16.0000 m/s
   Number of continuous states:        14
   Number of discrete states:           0
   Number of constraint states:         0
   Number of inputs:                 1890
   Number of outputs:                  25
   Jacobians included in this file?    No

Order of continuous states:
   Row/Column Operating Point                                                   Rotating Frame? Derivative Order Description
   ---------- ---------------                                                   --------------- ---------------- -----------
          1     8.64530658722E+000                                                     F               2         Platform horizontal surge translation DOF (internal DOF index = DOF_Sg), m
          2    -6.19437038898E-001                                                     F               2         Platform horizontal sway translation DOF (internal DOF index = DOF_Sw), m
          3    -1.52132734656E-001                                                     F               2         Platform vertical heave translation DOF (internal DOF index = DOF_Hv), m
          4     5.18074408174E-002                                                     F               2         Platform roll tilt rotation DOF (internal DOF index = DOF_R), rad
          5     1.13022170961E-001                                                     F               2         Platform pitch tilt rotation DOF (internal DOF index = DOF_P), rad
          6     5.15021558385E-004                                                     F               2         Platform yaw rotation DOF (internal DOF index = DOF_Y), rad
          7     3.67407083511E+000                                                     F               2         Variable speed generator DOF (internal DOF index = DOF_GeAz), rad
          8    -3.43095132848E-004                                                     F               2         First time derivative of Platform horizontal surge translation DOF (internal DOF index = DOF_Sg), m/s
          9    -2.86449765554E-004                                                     F               2         First time derivative of Platform horizontal sway translation DOF (internal DOF index = DOF_Sw), m/s
         10    -7.60966399685E-003                                                     F               2         First time derivative of Platform vertical heave translation DOF (internal DOF index = DOF_Hv), m/s
         11     5.37376581633E-005                                                     F               2         First time derivative of Platform roll tilt rotation DOF (internal DOF index = DOF_R), rad/s
         12    -2.22858488996E-005                                                     F               2         First time derivative of Platform pitch tilt rotation DOF (internal DOF index = DOF_P), rad/s
         13    -6.97891096024E-007                                                     F               2         First time derivative of Platform yaw rotation DOF (internal DOF index = DOF_Y), rad/s
         14     7.91559934616E-001                                                     F               2         First time derivative of Variable speed generator DOF (internal DOF index = DOF_GeAz), rad/s

Order of continuous state derivatives:
   Row/Column Operating Point                                                   Rotating Frame? Derivative Order Description
   ---------- ---------------                                                   --------------- ---------------- -----------
          1    -3.43095132848E-004                                                     F               2         First time derivative of Platform horizontal surge translation DOF (internal DOF index = DOF_Sg), m/s
          2    -2.86449765554E-004                                                     F               2         First time derivative of Platform horizontal sway translation DOF (internal DOF index = DOF_Sw), m/s
          3    -7.60966399685E-003                                                     F               2         First time derivative of Platform vertical heave translation DOF (internal DOF index = DOF_Hv), m/s
          4     5.37376581633E-005                                                     F               2         First time derivative of Platform roll tilt rotation DOF (internal DOF index = DOF_R), rad/s
          5    -2.22858488996E-005                                                     F               2         First time derivative of Platform pitch tilt rotation DOF (internal DOF index = DOF_P), rad/s
          6    -6.97891096024E-007                                                     F               2         First time derivative of Platform yaw rotation DOF (internal DOF index = DOF_Y), rad/s
          7     7.91559934616E-001                                                     F               2         First time derivative of Variable speed generator DOF (internal DOF index = DOF_GeAz), rad/s
          8    -6.73224509228E-004                                                     F               2         First time derivative of First time derivative of Platform horizontal surge translation DOF (internal DOF index = DOF_Sg), m/s/s
          9     5.50779281184E-004                                                     F               2         First time derivative of First time derivative of Platform horizontal sway translation DOF (internal DOF index = DOF_Sw), m/s/s
         10    -3.46694141626E-005                                                     F               2         First time derivative of First time derivative of Platform vertical heave translation DOF (internal DOF index = DOF_Hv), m/s/s
         11    -3.12655865855E-005                                                     F               2         First time derivative of First time derivative of Platform roll tilt rotation DOF (internal DOF index = DOF_R), rad/s/s
         12    -3.64317529602E-005                                                     F               2         First time derivative of First time derivative of Platform pitch tilt rotation DOF (internal DOF index = DOF_P), rad/s/s
         13    -6.14445798419E-006                                                     F               2         First time derivative of First time derivative of Platform yaw rotation DOF (internal DOF index = DOF_Y), rad/s/s
         14    -5.95506862737E-004                                                     F               2         First time derivative of First time derivative of Variable speed generator DOF (internal DOF index = DOF_GeAz), rad/s/s

Order of inputs:
     Column   Operating Point                                                   Rotating Frame? Derivative Order Description
   ---------- ---------------                                                   --------------- ---------------- -----------
          1     1.54574310303E+002                                                     F               0         Blade 1 X force, node 1, N
          2     1.73986186981E+001                                                     F               0         Blade 1 Y force, node 1, N
          3    -5.88509216309E+001                                                     F               0         Blade 1 Z force, node 1, N
          4     6.29807556152E+002                                                     F               0         Blade 1 X force, node 2, N
          5     3.34605522156E+001                                                     F               0         Blade 1 Y force, node 2, N
          6    -1.81868896484E+002                                                     F               0         Blade 1 Z force, node 2, N
          7     7.52574340820E+002                                                     F               0         Blade 1 X force, node 3, N
          8    -2.72003231049E+001                                                     F               0         Blade 1 Y force, node 3, N
          9    -1.13363143921E+002                                                     F               0         Blade 1 Z force, node 3, N
         10     9.41413635254E+002                                                     F               0         Blade 1 X force, node 4, N
         11    -8.50288772583E+001                                                     F               0         Blade 1 Y force, node 4, N
         12    -6.28879890442E+001                                                     F               0         Blade 1 Z force, node 4, N
         13     1.13026123047E+003                                                     F               0         Blade 1 X force, node 5, N
         14    -1.42858627319E+002                                                     F               0         Blade 1 Y force, node 5, N
         15    -1.24126977921E+001                                                     F               0         Blade 1 Z force, node 5, N
         16     1.31910253906E+003                                                     F               0         Blade 1 X force, node 6, N
         17    -2.00687789917E+002                                                     F               0         Blade 1 Y force, node 6, N
         18     3.80630073547E+001                                                     F               0         Blade 1 Z force, node 6, N
         19     1.50793371582E+003                                                     F               0         Blade 1 X force, node 7, N
         20    -2.58515258789E+002                                                     F               0         Blade 1 Y force, node 7, N
         21     8.85381393433E+001                                                     F               0         Blade 1 Z force, node 7, N
         22     1.69677319336E+003                                                     F               0         Blade 1 X force, node 8, N
         23    -3.16343841553E+002                                                     F               0         Blade 1 Y force, node 8, N
         24     1.39013305664E+002                                                     F               0         Blade 1 Z force, node 8, N
         25     1.88561230469E+003                                                     F               0         Blade 1 X force, node 9, N
         26    -3.74172363281E+002                                                     F               0         Blade 1 Y force, node 9, N
         27     1.89488479614E+002                                                     F               0         Blade 1 Z force, node 9, N
         28     2.07445141602E+003                                                     F               0         Blade 1 X force, node 10, N
         29    -4.32000915527E+002                                                     F               0         Blade 1 Y force, node 10, N
         30     2.39963623047E+002                                                     F               0         Blade 1 Z force, node 10, N
         31     2.26329077148E+003                                                     F               0         Blade 1 X force, node 11, N
         32    -4.89829467773E+002                                                     F               0         Blade 1 Y force, node 11, N
         33     2.90438781738E+002                                                     F               0         Blade 1 Z force, node 11, N
         34     2.45214721680E+003                                                     F               0         Blade 1 X force, node 12, N
         35    -5.47661926270E+002                                                     F               0         Blade 1 Y force, node 12, N
         36     3.40916442871E+002                                                     F               0         Blade 1 Z force, node 12, N
         37     2.64098876953E+003                                                     F               0         Blade 1 X force, node 13, N
         38    -6.05491088867E+002                                                     F               0         Blade 1 Y force, node 13, N
         39     3.91392120361E+002                                                     F               0         Blade 1 Z force, node 13, N
         40     2.82981127930E+003                                                     F               0         Blade 1 X force, node 14, N
         41    -6.63315979004E+002                                                     F               0         Blade 1 Y force, node 14, N
         42     4.41864959717E+002                                                     F               0         Blade 1 Z force, node 14, N
         43     3.01867065430E+003                                                     F               0         Blade 1 X force, node 15, N
         44    -7.21149291992E+002                                                     F               0         Blade 1 Y force, node 15, N
         45     4.92343444824E+002                                                     F               0         Blade 1 Z force, node 15, N
         46     3.20748901367E+003                                                     F               0         Blade 1 X force, node 16, N
         47    -7.78972778320E+002                                                     F               0         Blade 1 Y force, node 16, N
         48     5.42815124512E+002                                                     F               0         Blade 1 Z force, node 16, N
         49     3.94378295898E+003                                                     F               0         Blade 1 X force, node 17, N
         50    -9.71789062500E+002                                                     F               0         Blade 1 Y force, node 17, N
         51     6.89082885742E+002                                                     F               0         Blade 1 Z force, node 17, N
         52     3.05138208008E+003                                                     F               0         Blade 1 X force, node 18, N
         53    -7.56614746094E+002                                                     F               0         Blade 1 Y force, node 18, N
         54     5.40464416504E+002                                                     F               0         Blade 1 Z force, node 18, N
         55     3.80501269531E+003                                                     F               0         Blade 1 X force, node 19, N
         56    -9.45625000000E+002                                                     F               0         Blade 1 Y force, node 19, N
         57     6.77262084961E+002                                                     F               0         Blade 1 Z force, node 19, N
         58     3.29180395508E+003                                                     F               0         Blade 1 X force, node 20, N
         59    -8.19741333008E+002                                                     F               0         Blade 1 Y force, node 20, N
         60     5.88482604980E+002                                                     F               0         Blade 1 Z force, node 20, N
         61     5.03022070312E+003                                                     F               0         Blade 1 X force, node 21, N
         62    -1.25169458008E+003                                                     F               0         Blade 1 Y force, node 21, N
         63     8.97783691406E+002                                                     F               0         Blade 1 Z force, node 21, N
         64     4.72979589844E+003                                                     F               0         Blade 1 X force, node 22, N
         65    -1.17024865723E+003                                                     F               0         Blade 1 Y force, node 22, N
         66     8.33813171387E+002                                                     F               0         Blade 1 Z force, node 22, N
         67     5.12997998047E+003                                                     F               0         Blade 1 X force, node 23, N
         68    -1.26315625000E+003                                                     F               0         Blade 1 Y force, node 23, N
         69     8.94912902832E+002                                                     F               0         Blade 1 Z force, node 23, N
         70     5.57090527344E+003                                                     F               0         Blade 1 X force, node 24, N
         71    -1.36097790527E+003                                                     F               0         Blade 1 Y force, node 24, N
         72     9.55201416016E+002                                                     F               0         Blade 1 Z force, node 24, N
         73     5.70631982422E+003                                                     F               0         Blade 1 X force, node 25, N
         74    -1.36412695312E+003                                                     F               0         Blade 1 Y force, node 25, N
         75     9.32102722168E+002                                                     F               0         Blade 1 Z force, node 25, N
         76     5.82264794922E+003                                                     F               0         Blade 1 X force, node 26, N
         77    -1.35784411621E+003                                                     F               0         Blade 1 Y force, node 26, N
         78     8.98351806641E+002                                                     F               0         Blade 1 Z force, node 26, N
         79     6.91192724609E+003                                                     F               0         Blade 1 X force, node 27, N
         80    -1.57049255371E+003                                                     F               0         Blade 1 Y force, node 27, N
         81     1.00239447021E+003                                                     F               0         Blade 1 Z force, node 27, N
         82     5.07055322266E+003                                                     F               0         Blade 1 X force, node 28, N
         83    -1.12236535645E+003                                                     F               0         Blade 1 Y force, node 28, N
         84     6.89333251953E+002                                                     F               0         Blade 1 Z force, node 28, N
         85     6.14488964844E+003                                                     F               0         Blade 1 X force, node 29, N
         86    -1.32994238281E+003                                                     F               0         Blade 1 Y force, node 29, N
         87     7.88615478516E+002                                                     F               0         Blade 1 Z force, node 29, N
         88     5.18101757812E+003                                                     F               0         Blade 1 X force, node 30, N
         89    -1.09669104004E+003                                                     F               0         Blade 1 Y force, node 30, N
         90     6.26788146973E+002                                                     F               0         Blade 1 Z force, node 30, N
         91     7.40662939453E+003                                                     F               0         Blade 1 X force, node 31, N
         92    -1.52686267090E+003                                                     F               0         Blade 1 Y force, node 31, N
         93     8.32697570801E+002                                                     F               0         Blade 1 Z force, node 31, N
         94     6.43531298828E+003                                                     F               0         Blade 1 X force, node 32, N
         95    -1.29062353516E+003                                                     F               0         Blade 1 Y force, node 32, N
         96     6.67784973145E+002                                                     F               0         Blade 1 Z force, node 32, N
         97     6.52683740234E+003                                                     F               0         Blade 1 X force, node 33, N
         98    -1.27558862305E+003                                                     F               0         Blade 1 Y force, node 33, N
         99     6.25614990234E+002                                                     F               0         Blade 1 Z force, node 33, N
        100     6.61798486328E+003                                                     F               0         Blade 1 X force, node 34, N
        101    -1.26043469238E+003                                                     F               0         Blade 1 Y force, node 34, N
        102     5.83338806152E+002                                                     F               0         Blade 1 Z force, node 34, N
        103     6.70092285156E+003                                                     F               0         Blade 1 X force, node 35, N
        104    -1.24349890137E+003                                                     F               0         Blade 1 Y force, node 35, N
        105     5.40001464844E+002                                                     F               0         Blade 1 Z force, node 35, N
        106     6.78002734375E+003                                                     F               0         Blade 1 X force, node 36, N
        107    -1.22578637695E+003                                                     F               0         Blade 1 Y force, node 36, N
        108     4.96253967285E+002                                                     F               0         Blade 1 Z force, node 36, N
        109     8.01947851562E+003                                                     F               0         Blade 1 X force, node 37, N
        110    -1.41014550781E+003                                                     F               0         Blade 1 Y force, node 37, N
        111     5.25503356934E+002                                                     F               0         Blade 1 Z force, node 37, N
        112     5.76770361328E+003                                                     F               0         Blade 1 X force, node 38, N
        113    -9.87151550293E+002                                                     F               0         Blade 1 Y force, node 38, N
        114     3.36104766846E+002                                                     F               0         Blade 1 Z force, node 38, N
        115     6.99033251953E+003                                                     F               0         Blade 1 X force, node 39, N
        116    -1.16936560059E+003                                                     F               0         Blade 1 Y force, node 39, N
        117     3.65510009766E+002                                                     F               0         Blade 1 Z force, node 39, N
        118     5.89581884766E+003                                                     F               0         Blade 1 X force, node 40, N
        119    -9.63736633301E+002                                                     F               0         Blade 1 Y force, node 40, N
        120     2.73409698486E+002                                                     F               0         Blade 1 Z force, node 40, N
        121     8.25676367188E+003                                                     F               0         Blade 1 X force, node 41, N
        122    -1.31404248047E+003                                                     F               0         Blade 1 Y force, node 41, N
        123     3.27783294678E+002                                                     F               0         Blade 1 Z force, node 41, N
        124     7.12708105469E+003                                                     F               0         Blade 1 X force, node 42, N
        125    -1.10485021973E+003                                                     F               0         Blade 1 Y force, node 42, N
        126     2.37433944702E+002                                                     F               0         Blade 1 Z force, node 42, N
        127     7.15178369141E+003                                                     F               0         Blade 1 X force, node 43, N
        128    -1.08122485352E+003                                                     F               0         Blade 1 Y force, node 43, N
        129     1.95774490356E+002                                                     F               0         Blade 1 Z force, node 43, N
        130     7.21300488281E+003                                                     F               0         Blade 1 X force, node 44, N
        131    -1.06332214355E+003                                                     F               0         Blade 1 Y force, node 44, N
        132     1.55426391602E+002                                                     F               0         Blade 1 Z force, node 44, N
        133     7.15554199219E+003                                                     F               0         Blade 1 X force, node 45, N
        134    -1.02965161133E+003                                                     F               0         Blade 1 Y force, node 45, N
        135     1.15195640564E+002                                                     F               0         Blade 1 Z force, node 45, N
        136     7.21014990234E+003                                                     F               0         Blade 1 X force, node 46, N
        137    -1.01277423096E+003                                                     F               0         Blade 1 Y force, node 46, N
        138     7.78003463745E+001                                                     F               0         Blade 1 Z force, node 46, N
        139     8.48402148438E+003                                                     F               0         Blade 1 X force, node 47, N
        140    -1.16084411621E+003                                                     F               0         Blade 1 Y force, node 47, N
        141     4.37868728638E+001                                                     F               0         Blade 1 Z force, node 47, N
        142     5.96742968750E+003                                                     F               0         Blade 1 X force, node 48, N
        143    -7.96238098145E+002                                                     F               0         Blade 1 Y force, node 48, N
        144    -5.63486814499E-001                                                     F               0         Blade 1 Z force, node 48, N
        145     7.21529443359E+003                                                     F               0         Blade 1 X force, node 49, N
        146    -9.42603454590E+002                                                     F               0         Blade 1 Y force, node 49, N
        147    -3.18422603607E+001                                                     F               0         Blade 1 Z force, node 49, N
        148     6.07079736328E+003                                                     F               0         Blade 1 X force, node 50, N
        149    -7.75887207031E+002                                                     F               0         Blade 1 Y force, node 50, N
        150    -5.34054832458E+001                                                     F               0         Blade 1 Z force, node 50, N
        151     8.32668066406E+003                                                     F               0         Blade 1 X force, node 51, N
        152    -1.03735534668E+003                                                     F               0         Blade 1 Y force, node 51, N
        153    -1.14795097351E+002                                                     F               0         Blade 1 Z force, node 51, N
        154     7.17885986328E+003                                                     F               0         Blade 1 X force, node 52, N
        155    -8.72201110840E+002                                                     F               0         Blade 1 Y force, node 52, N
        156    -1.33254440308E+002                                                     F               0         Blade 1 Z force, node 52, N
        157     7.16457666016E+003                                                     F               0         Blade 1 X force, node 53, N
        158    -8.49647094727E+002                                                     F               0         Blade 1 Y force, node 53, N