
Linearized model: Predictions were generated on 13-Feb-2024 at 11:29:37 using OpenFAST, compiled as a 64-bit application using single precision at commit v3.5.1
 linked with  NWTC Subroutine Library; ElastoDyn; InflowWind; AeroDyn; ServoDyn; HydroDyn; MAP++ (<1.20.10>, <Oct-20-2023>)

Description from the FAST input file: CCT-9 Campign 4 model. Input files to be run with OpenFAST 3.5.0. GitHub branch from Lu Wang (https://github.com/luwang00/openfast/tree/dev) compiled on March 7, 2023.

Simulation information:
   Simulation time:                  1213.2750 s
   Rotor Speed:                         0.7917 rad/s
   Azimuth:                             1.9393 rad
   Wind Speed:                         16.0000 m/s
   Number of continuous states:         0
   Number of discrete states:           0
   Number of constraint states:         0
   Number of inputs:                   37
   Number of outputs:                   7
   Jacobians included in this file?    No

Order of inputs:
     Column   Operating Point                                                   Rotating Frame? Derivative Order Description
   ---------- ---------------                                                   --------------- ---------------- -----------
          1     8.64537620544E+000                                                     F               0         WAMIT X translation displacement, node 1, m
          2    -6.18520975113E-001                                                     F               0         WAMIT Y translation displacement, node 1, m
          3    -1.29962697625E-001                                                     F               0         WAMIT Z translation displacement, node 1, m
          4     9.93685424328E-001,   3.40723223053E-003,  -1.12150453031E-001         F               0         WAMIT X orientation angle, node 1, rad
          5     2.36459774897E-003,   9.98680889606E-001,   5.12918494642E-002         F               0         WAMIT Y orientation angle, node 1, rad
          6     1.12177275121E-001,  -5.12331537902E-002,   9.92366552353E-001         F               0         WAMIT Z orientation angle, node 1, rad
          7     1.76493020263E-004                                                     F               0         WAMIT X translation velocity, node 1, m/s
          8     4.85957134515E-004                                                     F               0         WAMIT Y translation velocity, node 1, m/s
          9    -1.62140582688E-003                                                     F               0         WAMIT Z translation velocity, node 1, m/s
         10    -2.41592078964E-005                                                     F               0         WAMIT X rotation velocity, node 1, rad/s
         11     1.14859331006E-005                                                     F               0         WAMIT Y rotation velocity, node 1, rad/s
         12    -6.87342935635E-006                                                     F               0         WAMIT Z rotation velocity, node 1, rad/s
         13     1.61838572240E-004                                                     F               0         WAMIT X translation acceleration, node 1, m/s^2
         14    -7.83577794209E-004                                                     F               0         WAMIT Y translation acceleration, node 1, m/s^2
         15    -2.04904167913E-003                                                     F               0         WAMIT Z translation acceleration, node 1, m/s^2
         16     5.48395546502E-005                                                     F               0         WAMIT X rotation acceleration, node 1, rad/s^2
         17     1.40898437166E-005                                                     F               0         WAMIT Y rotation acceleration, node 1, rad/s^2
         18    -4.91938226332E-006                                                     F               0         WAMIT Z rotation acceleration, node 1, rad/s^2
         19     8.64537620544E+000                                                     F               0         Platform-RefPt X translation displacement, node 1, m
         20    -6.18520975113E-001                                                     F               0         Platform-RefPt Y translation displacement, node 1, m
         21    -1.29962697625E-001                                                     F               0         Platform-RefPt Z translation displacement, node 1, m
         22     9.93685424328E-001,   3.40723223053E-003,  -1.12150453031E-001         F               0         Platform-RefPt X orientation angle, node 1, rad
         23     2.36459774897E-003,   9.98680889606E-001,   5.12918494642E-002         F               0         Platform-RefPt Y orientation angle, node 1, rad
         24     1.12177275121E-001,  -5.12331537902E-002,   9.92366552353E-001         F               0         Platform-RefPt Z orientation angle, node 1, rad
         25     1.76493020263E-004                                                     F               0         Platform-RefPt X translation velocity, node 1, m/s
         26     4.85957134515E-004                                                     F               0         Platform-RefPt Y translation velocity, node 1, m/s
         27    -1.62140582688E-003                                                     F               0         Platform-RefPt Z translation velocity, node 1, m/s
         28    -2.41592078964E-005                                                     F               0         Platform-RefPt X rotation velocity, node 1, rad/s
         29     1.14859331006E-005                                                     F               0         Platform-RefPt Y rotation velocity, node 1, rad/s
         30    -6.87342935635E-006                                                     F               0         Platform-RefPt Z rotation velocity, node 1, rad/s
         31     1.61838572240E-004                                                     F               0         Platform-RefPt X translation acceleration, node 1, m/s^2
         32    -7.83577794209E-004                                                     F               0         Platform-RefPt Y translation acceleration, node 1, m/s^2
         33    -2.04904167913E-003                                                     F               0         Platform-RefPt Z translation acceleration, node 1, m/s^2
         34     5.48395546502E-005                                                     F               0         Platform-RefPt X rotation acceleration, node 1, rad/s^2
         35     1.40898437166E-005                                                     F               0         Platform-RefPt Y rotation acceleration, node 1, rad/s^2
         36    -4.91938226332E-006                                                     F               0         Platform-RefPt Z rotation acceleration, node 1, rad/s^2
         37     0.00000000000E+000                                                     F               0         Extended input: wave elevation at platform ref point, m

Order of outputs:
        Row   Operating Point                                                   Rotating Frame? Derivative Order Description
   ---------- ---------------                                                   --------------- ---------------- -----------
          1     0.00000000000E+000                                                     F               0         Wave1Elev, (m)
          2    -5.94691914062E+004                                                     F               0         HydroFxi, (N)
          3     1.88378076172E+003                                                     F               0         HydroFyi, (N)
          4     2.03955888000E+008                                                     F               0         HydroFzi, (N)
          5    -1.10784232000E+008                                                     F               0         HydroMxi, (N-m)
          6    -2.41344048000E+008                                                     F               0         HydroMyi, (N-m)
          7     9.63819375000E+004                                                     F               0         HydroMzi, (N-m)


Linearized state matrices:

D: 7 x 37
     0.00000000000E+000   0.00000000000E+000   0.00000000000E+000   0.00000000000E+000   0.00000000000E+000   0.00000000000E+000   0.00000000000E+000   0.00000000000E+000   0.00000000000E+000   0.00000000000E+000   0.00000000000E+000   0.00000000000E+000   0.00000000000E+000   0.00000000000E+000   0.00000000000E+000   0.00000000000E+000   0.00000000000E+000   0.00000000000E+000   0.00000000000E+000   0.00000000000E+000   0.00000000000E+000   0.00000000000E+000   0.00000000000E+000   0.00000000000E+000   0.00000000000E+000   0.00000000000E+000   0.00000000000E+000   0.00000000000E+000   0.00000000000E+000   0.00000000000E+000   0.00000000000E+000   0.00000000000E+000   0.00000000000E+000   0.00000000000E+000   0.00000000000E+000   0.00000000000E+000   0.00000000000E+000
    -6.86000294576E+003   0.00000000000E+000   0.00000000000E+000   0.00000000000E+000   0.00000000000E+000   0.00000000000E+000  -2.82173288298E+005   0.00000000000E+000   0.00000000000E+000   0.00000000000E+000   0.00000000000E+000   0.00000000000E+000  -9.38083896931E+006   0.00000000000E+000   1.99512100047E+001   0.00000000000E+000   9.82680351759E+007   0.00000000000E+000   0.00000000000E+000   0.00000000000E+000   0.00000000000E+000   0.00000000000E+000   0.00000000000E+000   0.00000000000E+000   0.00000000000E+000   0.00000000000E+000   0.00000000000E+000   0.00000000000E+000   0.00000000000E+000   0.00000000000E+000   0.00000000000E+000   0.00000000000E+000   0.00000000000E+000   0.00000000000E+000   0.00000000000E+000   0.00000000000E+000   0.00000000000E+000
     0.00000000000E+000   0.00000000000E+000   0.00000000000E+000   0.00000000000E+000   0.00000000000E+000   0.00000000000E+000   0.00000000000E+000  -2.82174950898E+005   0.00000000000E+000   0.00000000000E+000   0.00000000000E+000   0.00000000000E+000   0.00000000000E+000  -9.38088807999E+006   0.00000000000E+000  -9.82662446828E+007   0.00000000000E+000   1.78567767633E+003   0.00000000000E+000   0.00000000000E+000   0.00000000000E+000   0.00000000000E+000   0.00000000000E+000   0.00000000000E+000   0.00000000000E+000   0.00000000000E+000   0.00000000000E+000   0.00000000000E+000   0.00000000000E+000   0.00000000000E+000   0.00000000000E+000   0.00000000000E+000   0.00000000000E+000   0.00000000000E+000   0.00000000000E+000   0.00000000000E+000   0.00000000000E+000
     0.00000000000E+000   0.00000000000E+000  -4.39481570682E+006   0.00000000000E+000   3.66692991724E+003   0.00000000000E+000   0.00000000000E+000   0.00000000000E+000  -8.06528176008E+005   0.00000000000E+000   0.00000000000E+000   0.00000000000E+000   0.00000000000E+000   0.00000000000E+000  -2.41346861249E+007   0.00000000000E+000   1.78762833466E+004   0.00000000000E+000   0.00000000000E+000   0.00000000000E+000   0.00000000000E+000   0.00000000000E+000   0.00000000000E+000   0.00000000000E+000   0.00000000000E+000   0.00000000000E+000   0.00000000000E+000   0.00000000000E+000   0.00000000000E+000   0.00000000000E+000   0.00000000000E+000   0.00000000000E+000   0.00000000000E+000   0.00000000000E+000   0.00000000000E+000   0.00000000000E+000   0.00000000000E+000
     0.00000000000E+000   2.03955895462E+008  -1.83346504248E+003  -2.13421463291E+009   0.00000000000E+000   8.88084589332E+004   0.00000000000E+000   0.00000000000E+000   0.00000000000E+000  -2.78327543762E+009   0.00000000000E+000   0.00000000000E+000   0.00000000000E+000  -9.82010097437E+007   0.00000000000E+000  -1.13246530020E+010   0.00000000000E+000   5.30558922401E+004   0.00000000000E+000  -2.03955895462E+008   1.83346504248E+003   0.00000000000E+000   0.00000000000E+000   0.00000000000E+000   0.00000000000E+000   0.00000000000E+000   0.00000000000E+000   0.00000000000E+000   0.00000000000E+000   0.00000000000E+000   0.00000000000E+000   0.00000000000E+000   0.00000000000E+000   0.00000000000E+000   0.00000000000E+000   0.00000000000E+000   0.00000000000E+000
    -2.03955895462E+008   0.00000000000E+000  -5.56587602181E+004   0.00000000000E+000  -2.13398109531E+009   0.00000000000E+000   0.00000000000E+000   0.00000000000E+000   0.00000000000E+000   0.00000000000E+000  -2.78327406252E+009   0.00000000000E+000   9.82036617200E+007   0.00000000000E+000   1.93168638404E+004   0.00000000000E+000  -1.13240543757E+010   0.00000000000E+000   2.03955895462E+008   0.00000000000E+000   5.95221329862E+004   0.00000000000E+000   0.00000000000E+000   0.00000000000E+000   0.00000000000E+000   0.00000000000E+000   0.00000000000E+000   0.00000000000E+000   0.00000000000E+000   0.00000000000E+000   0.00000000000E+000   0.00000000000E+000   0.00000000000E+000   0.00000000000E+000   0.00000000000E+000   0.00000000000E+000   0.00000000000E+000
     1.88379069079E+003   5.94691855443E+004   0.00000000000E+000   0.00000000000E+000   0.00000000000E+000   0.00000000000E+000   0.00000000000E+000   0.00000000000E+000   0.00000000000E+000   0.00000000000E+000   0.00000000000E+000  -2.51327388742E+009   0.00000000000E+000   1.55379639839E+003   0.00000000000E+000   4.40409831741E+004   0.00000000000E+000  -1.95913504720E+010  -1.88379069079E+003  -5.94691855443E+004   0.00000000000E+000   0.00000000000E+000   0.00000000000E+000   0.00000000000E+000   0.00000000000E+000   0.00000000000E+000   0.00000000000E+000   0.00000000000E+000   0.00000000000E+000   0.00000000000E+000   0.00000000000E+000   0.00000000000E+000   0.00000000000E+000   0.00000000000E+000   0.00000000000E+000   0.00000000000E+000   0.00000000000E+000
