
Linearized model: Predictions were generated on 31-Jan-2024 at 12:35:17 using OpenFAST, compiled as a 64-bit application using single precision at commit v3.5.1
 linked with  NWTC Subroutine Library; ElastoDyn; InflowWind; AeroDyn; ServoDyn; HydroDyn; MAP++ (<1.20.10>, <Oct-20-2023>)

Description from the FAST input file: CCT-9 Campign 4 model. Input files to be run with OpenFAST 3.5.0. GitHub branch from Lu Wang (https://github.com/luwang00/openfast/tree/dev) compiled on March 7, 2023.

Simulation information:
   Simulation time:                   508.1500 s
   Rotor Speed:                         0.8937 rad/s
   Azimuth:                             1.7469 rad
   Wind Speed:                         10.0000 m/s
   Number of continuous states:        12
   Number of discrete states:           0
   Number of constraint states:         0
   Number of inputs:                 3988
   Number of outputs:                  36
   Jacobians included in this file?    No

Order of continuous states:
   Row/Column Operating Point                     Rotating Frame? Derivative Order Description
   ---------- ---------------                     --------------- ---------------- -----------
          1    8.161E+00                                 F               2         ED Platform horizontal surge translation DOF (internal DOF index = DOF_Sg), m
          2   -9.513E-02                                 F               2         ED Platform vertical heave translation DOF (internal DOF index = DOF_Hv), m
          3    7.099E-03                                 F               2         ED Platform yaw rotation DOF (internal DOF index = DOF_Y), rad
          4    3.856E-01                                 F               2         ED 1st tower fore-aft bending mode DOF (internal DOF index = DOF_TFA1), m
          5    1.285E-03                                 F               2         ED 2nd tower fore-aft bending mode DOF (internal DOF index = DOF_TFA2), m
          6    1.761E-01                                 F               2         ED Variable speed generator DOF (internal DOF index = DOF_GeAz), rad
          7   -2.840E-03                                 F               2         ED First time derivative of Platform horizontal surge translation DOF (internal DOF index = DOF_Sg), m/s
          8   -5.130E-03                                 F               2         ED First time derivative of Platform vertical heave translation DOF (internal DOF index = DOF_Hv), m/s
          9   -1.742E-06                                 F               2         ED First time derivative of Platform yaw rotation DOF (internal DOF index = DOF_Y), rad/s
         10   -3.024E-04                                 F               2         ED First time derivative of 1st tower fore-aft bending mode DOF (internal DOF index = DOF_TFA1), m/s
         11    1.829E-06                                 F               2         ED First time derivative of 2nd tower fore-aft bending mode DOF (internal DOF index = DOF_TFA2), m/s
         12    8.937E-01                                 F               2         ED First time derivative of Variable speed generator DOF (internal DOF index = DOF_GeAz), rad/s

Order of continuous state derivatives:
   Row/Column Operating Point                     Rotating Frame? Derivative Order Description
   ---------- ---------------                     --------------- ---------------- -----------
          1   -2.840E-03                                 F               2         First time derivative of ED Platform horizontal surge translation DOF (internal DOF index = DOF_Sg), m/s
          2   -5.130E-03                                 F               2         First time derivative of ED Platform vertical heave translation DOF (internal DOF index = DOF_Hv), m/s
          3   -1.742E-06                                 F               2         First time derivative of ED Platform yaw rotation DOF (internal DOF index = DOF_Y), rad/s
          4   -3.024E-04                                 F               2         First time derivative of ED 1st tower fore-aft bending mode DOF (internal DOF index = DOF_TFA1), m/s
          5    1.829E-06                                 F               2         First time derivative of ED 2nd tower fore-aft bending mode DOF (internal DOF index = DOF_TFA2), m/s
          6    8.937E-01                                 F               2         First time derivative of ED Variable speed generator DOF (internal DOF index = DOF_GeAz), rad/s
          7   -2.445E-04                                 F               2         First time derivative of ED First time derivative of Platform horizontal surge translation DOF (internal DOF index = DOF_Sg), m/s/s
          8    2.095E-03                                 F               2         First time derivative of ED First time derivative of Platform vertical heave translation DOF (internal DOF index = DOF_Hv), m/s/s
          9    2.374E-06                                 F               2         First time derivative of ED First time derivative of Platform yaw rotation DOF (internal DOF index = DOF_Y), rad/s/s
         10   -3.786E-04                                 F               2         First time derivative of ED First time derivative of 1st tower fore-aft bending mode DOF (internal DOF index = DOF_TFA1), m/s/s
         11    5.688E-06                                 F               2         First time derivative of ED First time derivative of 2nd tower fore-aft bending mode DOF (internal DOF index = DOF_TFA2), m/s/s
         12    1.475E-04                                 F               2         First time derivative of ED First time derivative of Variable speed generator DOF (internal DOF index = DOF_GeAz), rad/s/s

Order of inputs:
     Column   Operating Point                     Rotating Frame? Derivative Order Description
   ---------- ---------------                     --------------- ---------------- -----------
          1   -1.080E+01                                 F               0         IfW X-component position of node 1 (hub), m
          2    0.000E+00                                 F               0         IfW Y-component position of node 1 (hub), m
          3    1.497E+02                                 F               0         IfW Z-component position of node 1 (hub), m
          4    5.006E-01                                 F               0         IfW X-component position of node 2 (blade 1, node 1), m
          5   -1.251E+01                                 F               0         IfW Y-component position of node 2 (blade 1, node 1), m
          6    1.485E+02                                 F               0         IfW Z-component position of node 2 (blade 1, node 1), m
          7    4.796E-01                                 F               0         IfW X-component position of node 3 (blade 1, node 2), m
          8   -1.381E+01                                 F               0         IfW Y-component position of node 3 (blade 1, node 2), m
          9    1.482E+02                                 F               0         IfW Z-component position of node 3 (blade 1, node 2), m
         10    1.938E-01                                 F               0         IfW X-component position of node 4 (blade 1, node 3), m
         11   -3.153E+01                                 F               0         IfW Y-component position of node 4 (blade 1, node 3), m
         12    1.443E+02                                 F               0         IfW Z-component position of node 4 (blade 1, node 3), m
         13    1.329E-01                                 F               0         IfW X-component position of node 5 (blade 1, node 4), m
         14   -3.531E+01                                 F               0         IfW Y-component position of node 5 (blade 1, node 4), m
         15    1.435E+02                                 F               0         IfW Z-component position of node 5 (blade 1, node 4), m
         16    7.206E-02                                 F               0         IfW X-component position of node 6 (blade 1, node 5), m
         17   -3.908E+01                                 F               0         IfW Y-component position of node 6 (blade 1, node 5), m
         18    1.426E+02                                 F               0         IfW Z-component position of node 6 (blade 1, node 5), m
         19    1.118E-02                                 F               0         IfW X-component position of node 7 (blade 1, node 6), m
         20   -4.286E+01                                 F               0         IfW Y-component position of node 7 (blade 1, node 6), m
         21    1.418E+02                                 F               0         IfW Z-component position of node 7 (blade 1, node 6), m
         22   -4.970E-02                                 F               0         IfW X-component position of node 8 (blade 1, node 7), m
         23   -4.664E+01                                 F               0         IfW Y-component position of node 8 (blade 1, node 7), m
         24    1.410E+02                                 F               0         IfW Z-component position of node 8 (blade 1, node 7), m
         25   -1.106E-01                                 F               0         IfW X-component position of node 9 (blade 1, node 8), m
         26   -5.041E+01                                 F               0         IfW Y-component position of node 9 (blade 1, node 8), m
         27    1.401E+02                                 F               0         IfW Z-component position of node 9 (blade 1, node 8), m
         28   -1.715E-01                                 F               0         IfW X-component position of node 10 (blade 1, node 9), m
         29   -5.419E+01                                 F               0         IfW Y-component position of node 10 (blade 1, node 9), m
         30    1.393E+02                                 F               0         IfW Z-component position of node 10 (blade 1, node 9), m
         31   -2.323E-01                                 F               0         IfW X-component position of node 11 (blade 1, node 10), m
         32   -5.796E+01                                 F               0         IfW Y-component position of node 11 (blade 1, node 10), m
         33    1.385E+02                                 F               0         IfW Z-component position of node 11 (blade 1, node 10), m
         34   -2.932E-01                                 F               0         IfW X-component position of node 12 (blade 1, node 11), m
         35   -6.174E+01                                 F               0         IfW Y-component position of node 12 (blade 1, node 11), m
         36    1.376E+02                                 F               0         IfW Z-component position of node 12 (blade 1, node 11), m
         37   -3.541E-01                                 F               0         IfW X-component position of node 13 (blade 1, node 12), m
         38   -6.551E+01                                 F               0         IfW Y-component position of node 13 (blade 1, node 12), m
         39    1.368E+02                                 F               0         IfW Z-component position of node 13 (blade 1, node 12), m
         40   -4.150E-01                                 F               0         IfW X-component position of node 14 (blade 1, node 13), m
         41   -6.929E+01                                 F               0         IfW Y-component position of node 14 (blade 1, node 13), m
         42    1.359E+02                                 F               0         IfW Z-component position of node 14 (blade 1, node 13), m
         43   -4.759E-01                                 F               0         IfW X-component position of node 15 (blade 1, node 14), m
         44   -7.307E+01                                 F               0         IfW Y-component position of node 15 (blade 1, node 14), m
         45    1.351E+02                                 F               0         IfW Z-component position of node 15 (blade 1, node 14), m
         46   -5.368E-01                                 F               0         IfW X-component position of node 16 (blade 1, node 15), m
         47   -7.684E+01                                 F               0         IfW Y-component position of node 16 (blade 1, node 15), m
         48    1.343E+02                                 F               0         IfW Z-component position of node 16 (blade 1, node 15), m
         49   -5.976E-01                                 F               0         IfW X-component position of node 17 (blade 1, node 16), m
         50   -8.062E+01                                 F               0         IfW Y-component position of node 17 (blade 1, node 16), m
         51    1.334E+02                                 F               0         IfW Z-component position of node 17 (blade 1, node 16), m
         52   -6.585E-01                                 F               0         IfW X-component position of node 18 (blade 1, node 17), m
         53   -8.439E+01                                 F               0         IfW Y-component position of node 18 (blade 1, node 17), m
         54    1.326E+02                                 F               0         IfW Z-component position of node 18 (blade 1, node 17), m
         55   -7.194E-01                                 F               0         IfW X-component position of node 19 (blade 1, node 18), m
         56   -8.817E+01                                 F               0         IfW Y-component position of node 19 (blade 1, node 18), m
         57    1.318E+02                                 F               0         IfW Z-component position of node 19 (blade 1, node 18), m
         58   -7.803E-01                                 F               0         IfW X-component position of node 20 (blade 1, node 19), m
         59   -9.194E+01                                 F               0         IfW Y-component position of node 20 (blade 1, node 19), m
         60    1.309E+02                                 F               0         IfW Z-component position of node 20 (blade 1, node 19), m
         61   -8.412E-01                                 F               0         IfW X-component position of node 21 (blade 1, node 20), m
         62   -9.572E+01                                 F               0         IfW Y-component position of node 21 (blade 1, node 20), m
         63    1.301E+02                                 F               0         IfW Z-component position of node 21 (blade 1, node 20), m
         64   -9.020E-01                                 F               0         IfW X-component position of node 22 (blade 1, node 21), m
         65   -9.950E+01                                 F               0         IfW Y-component position of node 22 (blade 1, node 21), m
         66    1.293E+02                                 F               0         IfW Z-component position of node 22 (blade 1, node 21), m
         67   -9.629E-01                                 F               0         IfW X-component position of node 23 (blade 1, node 22), m
         68   -1.033E+02                                 F               0         IfW Y-component position of node 23 (blade 1, node 22), m
         69    1.284E+02                                 F               0         IfW Z-component position of node 23 (blade 1, node 22), m
         70   -1.024E+00                                 F               0         IfW X-component position of node 24 (blade 1, node 23), m
         71   -1.070E+02                                 F               0         IfW Y-component position of node 24 (blade 1, node 23), m
         72    1.276E+02                                 F               0         IfW Z-component position of node 24 (blade 1, node 23), m
         73   -1.085E+00                                 F               0         IfW X-component position of node 25 (blade 1, node 24), m
         74   -1.108E+02                                 F               0         IfW Y-component position of node 25 (blade 1, node 24), m
         75    1.267E+02                                 F               0         IfW Z-component position of node 25 (blade 1, node 24), m
         76   -1.146E+00                                 F               0         IfW X-component position of node 26 (blade 1, node 25), m
         77   -1.146E+02                                 F               0         IfW Y-component position of node 26 (blade 1, node 25), m
         78    1.259E+02                                 F               0         IfW Z-component position of node 26 (blade 1, node 25), m
         79   -1.206E+00                                 F               0         IfW X-component position of node 27 (blade 1, node 26), m
         80   -1.184E+02                                 F               0         IfW Y-component position of node 27 (blade 1, node 26), m
         81    1.251E+02                                 F               0         IfW Z-component position of node 27 (blade 1, node 26), m
         82   -1.267E+00                                 F               0         IfW X-component position of node 28 (blade 1, node 27), m
         83   -1.222E+02                                 F               0         IfW Y-component position of node 28 (blade 1, node 27), m
         84    1.242E+02                                 F               0         IfW Z-component position of node 28 (blade 1, node 27), m
         85   -1.319E+00                                 F               0         IfW X-component position of node 29 (blade 1, node 28), m
         86   -1.254E+02                                 F               0         IfW Y-component position of node 29 (blade 1, node 28), m
         87    1.235E+02                                 F               0         IfW Z-component position of node 29 (blade 1, node 28), m
         88    2.373E-02                                 F               0         IfW X-component position of node 30 (blade 2, node 1), m
         89   -3.357E+00                                 F               0         IfW Y-component position of node 30 (blade 2, node 1), m
         90    1.457E+02                                 F               0         IfW Z-component position of node 30 (blade 2, node 1), m
         91   -1.122E-01                                 F               0         IfW X-component position of node 31 (blade 2, node 2), m
         92   -2.456E+00                                 F               0         IfW Y-component position of node 31 (blade 2, node 2), m
         93    1.447E+02                                 F               0         IfW Z-component position of node 31 (blade 2, node 2), m
         94   -1.960E+00                                 F               0         IfW X-component position of node 32 (blade 2, node 3), m
         95    9.807E+00                                 F               0         IfW Y-component position of node 32 (blade 2, node 3), m
         96    1.314E+02                                 F               0         IfW Z-component position of node 32 (blade 2, node 3), m
         97   -2.354E+00                                 F               0         IfW X-component position of node 33 (blade 2, node 4), m
         98    1.242E+01                                 F               0         IfW Y-component position of node 33 (blade 2, node 4), m
         99    1.286E+02                                 F               0         IfW Z-component position of node 33 (blade 2, node 4), m
        100   -2.748E+00                                 F               0         IfW X-component position of node 34 (blade 2, node 5), m
        101    1.503E+01                                 F               0         IfW Y-component position of node 34 (blade 2, node 5), m
        102    1.258E+02                                 F               0         IfW Z-component position of node 34 (blade 2, node 5), m
        103   -3.142E+00                                 F               0         IfW X-component position of node 35 (blade 2, node 6), m
        104    1.765E+01                                 F               0         IfW Y-component position of node 35 (blade 2, node 6), m
        105    1.230E+02                                 F               0         IfW Z-component position of node 35 (blade 2, node 6), m
        106   -3.536E+00                                 F               0         IfW X-component position of node 36 (blade 2, node 7), m
        107    2.026E+01                                 F               0         IfW Y-component position of node 36 (blade 2, node 7), m
        108    1.201E+02                                 F               0         IfW Z-component position of node 36 (blade 2, node 7), m
        109   -3.929E+00                                 F               0         IfW X-component position of node 37 (blade 2, node 8), m
        110    2.287E+01                                 F               0         IfW Y-component position of node 37 (blade 2, node 8), m
        111    1.173E+02                                 F               0         IfW Z-component position of node 37 (blade 2, node 8), m
        112   -4.323E+00                                 F               0         IfW X-component position of node 38 (blade 2, node 9), m
        113    2.548E+01                                 F               0         IfW Y-component position of node 38 (blade 2, node 9), m
        114    1.145E+02                                 F               0         IfW Z-component position of node 38 (blade 2, node 9), m
        115   -4.717E+00                                 F               0         IfW X-component position of node 39 (blade 2, node 10), m
        116    2.810E+01                                 F               0         IfW Y-component position of node 39 (blade 2, node 10), m
        117    1.117E+02                                 F               0         IfW Z-component position of node 39 (blade 2, node 10), m
        118   -5.111E+00                                 F               0         IfW X-component position of node 40 (blade 2, node 11), m
        119    3.071E+01                                 F               0         IfW Y-component position of node 40 (blade 2, node 11), m
        120    1.088E+02                                 F               0         IfW Z-component position of node 40 (blade 2, node 11), m
        121   -5.504E+00                                 F               0         IfW X-component position of node 41 (blade 2, node 12), m
        122    3.332E+01                                 F               0         IfW Y-component position of node 41 (blade 2, node 12), m
        123    1.060E+02                                 F               0         IfW Z-component position of node 41 (blade 2, node 12), m
        124   -5.898E+00                                 F               0         IfW X-component position of node 42 (blade 2, node 13), m
        125    3.593E+01                                 F               0         IfW Y-component position of node 42 (blade 2, node 13), m
        126    1.032E+02                                 F               0         IfW Z-component position of node 42 (blade 2, node 13), m
        127   -6.292E+00                                 F               0         IfW X-component position of node 43 (blade 2, node 14), m
        128    3.855E+01                                 F               0         IfW Y-component position of node 43 (blade 2, node 14), m
        129    1.004E+02                                 F               0         IfW Z-component position of node 43 (blade 2, node 14), m
        130   -6.686E+00                                 F               0         IfW X-component position of node 44 (blade 2, node 15), m
        131    4.116E+01                                 F               0         IfW Y-component position of node 44 (blade 2, node 15), m
        132    9.755E+01                                 F               0         IfW Z-component position of node 44 (blade 2, node 15), m
        133   -7.080E+00                                 F               0         IfW X-component position of node 45 (blade 2, node 16), m
        134    4.377E+01                                 F               0         IfW Y-component position of node 45 (blade 2, node 16), m
        135    9.472E+01                                 F               0         IfW Z-component position of node 45 (blade 2, node 16), m
        136   -7.473E+00                                 F               0         IfW X-component position of node 46 (blade 2, node 17), m
        137    4.639E+01                                 F               0         IfW Y-component position of node 46 (blade 2, node 17), m
        138    9.190E+01                                 F               0         IfW Z-component position of node 46 (blade 2, node 17), m
        139   -7.867E+00                                 F               0         IfW X-component position of node 47 (blade 2, node 18), m
        140    4.900E+01                                 F               0         IfW Y-component position of node 47 (blade 2, node 18), m
        141    8.907E+01                                 F               0         IfW Z-component position of node 47 (blade 2, node 18), m
        142   -8.261E+00                                 F               0         IfW X-component position of node 48 (blade 2, node 19), m
        143    5.161E+01                                 F               0         IfW Y-component position of node 48 (blade 2, node 19), m
        144    8.625E+01                                 F               0         IfW Z-component position of node 48 (blade 2, node 19), m
        145   -8.655E+00                                 F               0         IfW X-component position of node 49 (blade 2, node 20), m
        146    5.422E+01                                 F               0         IfW Y-component position of node 49 (blade 2, node 20), m
        147    8.342E+01                                 F               0         IfW Z-component position of node 49 (blade 2, node 20), m
        148   -9.049E+00                                 F               0         IfW X-component position of node 50 (blade 2, node 21), m
        149    5.684E+01                                 F               0         IfW Y-component position of node 50 (blade 2, node 21), m
        150    8.060E+01                                 F               0         IfW Z-component position of node 50 (blade 2, node 21), m
        151   -9.442E+00                                 F               0         IfW X-component position of node 51 (blade 2, node 22), m
        152    5.945E+01                                 F               0         IfW Y-component position of node 51 (blade 2, node 22), m
        153    7.777E+01                                 F               0         IfW Z-component position of node 51 (blade 2, node 22), m
        154   -9.836E+00                                 F               0         IfW X-component position of node 52 (blade 2, node 23), m
        155    6.206E+01                                 F               0         IfW Y-component position of node 52 (blade 2, node 23), m
        156    7.495E+01                                 F               0         IfW Z-component position of node 52 (blade 2, node 23), m
        157   -1.023E+01                                 F               0         IfW X-component position of node 53 (blade 2, node 24), m
        158    6.467E+01                                 F               0         IfW Y-component position of node 53 (blade 2, node 24), m
        159    7.213E+01                                 F               0         IfW Z-component position of node 53 (blade 2, node 24), m
        160   -1.062E+01                                 F               0         IfW X-component position of node 54 (blade 2, node 25), m
        161    6.729E+01                                 F               0         IfW Y-component position of node 54 (blade 2, node 25), m
        162    6.930E+01                                 F               0         IfW Z-component position of node 54 (blade 2, node 25), m
        163   -1.102E+01                                 F               0         IfW X-component position of node 55 (blade 2, node 26), m
        164    6.990E+01                                 F               0         IfW Y-component position of node 55 (blade 2, node 26), m
        165    6.648E+01                                 F               0         IfW Z-component position of node 55 (blade 2, node 26), m
        166   -1.141E+01                                 F               0         IfW X-component position of node 56 (blade 2, node 27), m
        167    7.251E+01                                 F               0         IfW Y-component position of node 56 (blade 2, node 27), m
        168    6.365E+01                                 F               0         IfW Z-component position of node 56 (blade 2, node 27), m
        169   -1.175E+01                                 F               0         IfW X-component position of node 57 (blade 2, node 28), m
        170    7.473E+01                                 F               0         IfW Y-component position of node 57 (blade 2, node 28), m
        171    6.126E+01                                 F               0         IfW Z-component position of node 57 (blade 2, node 28), m