
Linearized model: Predictions were generated on 13-Feb-2024 at 11:29:37 using OpenFAST, compiled as a 64-bit application using single precision at commit v3.5.1
 linked with  NWTC Subroutine Library; ElastoDyn; InflowWind; AeroDyn; ServoDyn; HydroDyn; MAP++ (<1.20.10>, <Oct-20-2023>)

Description from the FAST input file: CCT-9 Campign 4 model. Input files to be run with OpenFAST 3.5.0. GitHub branch from Lu Wang (https://github.com/luwang00/openfast/tree/dev) compiled on March 7, 2023.

Simulation information:
   Simulation time:                  1210.8250 s
   Rotor Speed:                         0.7917 rad/s
   Azimuth:                             0.0001 rad
   Wind Speed:                         16.0000 m/s
   Number of continuous states:         0
   Number of discrete states:           0
   Number of constraint states:         0
   Number of inputs:                 1746
   Number of outputs:                   4
   Jacobians included in this file?    No

Order of inputs:
     Column   Operating Point                                                   Rotating Frame? Derivative Order Description
   ---------- ---------------                                                   --------------- ---------------- -----------
          1     1.07024450302E+001                                                     F               0         Tower X translation displacement, node 1, m
          2    -1.56118452549E+000                                                     F               0         Tower Y translation displacement, node 1, m
          3    -2.72064059973E-001                                                     F               0         Tower Z translation displacement, node 1, m
          4     1.20882558823E+001                                                     F               0         Tower X translation displacement, node 2, m
          5    -2.19526743889E+000                                                     F               0         Tower Y translation displacement, node 2, m
          6    -3.66417229176E-001                                                     F               0         Tower Z translation displacement, node 2, m
          7     1.34740657806E+001                                                     F               0         Tower X translation displacement, node 3, m
          8    -2.82935047150E+000                                                     F               0         Tower Y translation displacement, node 3, m
          9    -4.60768312216E-001                                                     F               0         Tower Z translation displacement, node 3, m
         10     1.48598766327E+001                                                     F               0         Tower X translation displacement, node 4, m
         11    -3.46343374252E+000                                                     F               0         Tower Y translation displacement, node 4, m
         12    -5.55119633675E-001                                                     F               0         Tower Z translation displacement, node 4, m
         13     1.62456874847E+001                                                     F               0         Tower X translation displacement, node 5, m
         14    -4.09751701355E+000                                                     F               0         Tower Y translation displacement, node 5, m
         15    -6.49468064308E-001                                                     F               0         Tower Z translation displacement, node 5, m
         16     1.76314964294E+001                                                     F               0         Tower X translation displacement, node 6, m
         17    -4.73159933090E+000                                                     F               0         Tower Y translation displacement, node 6, m
         18    -7.43827104568E-001                                                     F               0         Tower Z translation displacement, node 6, m
         19     1.90173091888E+001                                                     F               0         Tower X translation displacement, node 7, m
         20    -5.36568307877E+000                                                     F               0         Tower Y translation displacement, node 7, m
         21    -8.38172137737E-001                                                     F               0         Tower Z translation displacement, node 7, m
         22     2.04031181335E+001                                                     F               0         Tower X translation displacement, node 8, m
         23    -5.99976539612E+000                                                     F               0         Tower Y translation displacement, node 8, m
         24    -9.32529270649E-001                                                     F               0         Tower Z translation displacement, node 8, m
         25     2.17889308929E+001                                                     F               0         Tower X translation displacement, node 9, m
         26    -6.63384914398E+000                                                     F               0         Tower Y translation displacement, node 9, m
         27    -1.02687740326E+000                                                     F               0         Tower Z translation displacement, node 9, m
         28     2.31747398376E+001                                                     F               0         Tower X translation displacement, node 10, m
         29    -7.26793241501E+000                                                     F               0         Tower Y translation displacement, node 10, m
         30    -1.12123155594E+000                                                     F               0         Tower Z translation displacement, node 10, m
         31     2.45605506897E+001                                                     F               0         Tower X translation displacement, node 11, m
         32    -7.90201520920E+000                                                     F               0         Tower Y translation displacement, node 11, m
         33    -1.21558260918E+000                                                     F               0         Tower Z translation displacement, node 11, m
         34     9.93686616421E-001,   3.40321264230E-003,  -1.12139537930E-001         F               0         Tower X orientation angle, node 1, rad
         35     2.37800017931E-003,   9.98676359653E-001,   5.13796918094E-002         F               0         Tower Y orientation angle, node 1, rad
         36     1.12165965140E-001,  -5.13219796121E-002,   9.92363274097E-001         F               0         Tower Z orientation angle, node 1, rad
         37     9.93686616421E-001,   3.40321264230E-003,  -1.12139537930E-001         F               0         Tower X orientation angle, node 2, rad
         38     2.37800017931E-003,   9.98676359653E-001,   5.13796918094E-002         F               0         Tower Y orientation angle, node 2, rad
         39     1.12165965140E-001,  -5.13219796121E-002,   9.92363274097E-001         F               0         Tower Z orientation angle, node 2, rad
         40     9.93686616421E-001,   3.40321264230E-003,  -1.12139537930E-001         F               0         Tower X orientation angle, node 3, rad
         41     2.37800017931E-003,   9.98676359653E-001,   5.13796918094E-002         F               0         Tower Y orientation angle, node 3, rad
         42     1.12165965140E-001,  -5.13219796121E-002,   9.92363274097E-001         F               0         Tower Z orientation angle, node 3, rad
         43     9.93686616421E-001,   3.40321264230E-003,  -1.12139537930E-001         F               0         Tower X orientation angle, node 4, rad
         44     2.37800017931E-003,   9.98676359653E-001,   5.13796918094E-002         F               0         Tower Y orientation angle, node 4, rad
         45     1.12165965140E-001,  -5.13219796121E-002,   9.92363274097E-001         F               0         Tower Z orientation angle, node 4, rad
         46     9.93686616421E-001,   3.40321264230E-003,  -1.12139537930E-001         F               0         Tower X orientation angle, node 5, rad
         47     2.37800017931E-003,   9.98676359653E-001,   5.13796918094E-002         F               0         Tower Y orientation angle, node 5, rad
         48     1.12165965140E-001,  -5.13219796121E-002,   9.92363274097E-001         F               0         Tower Z orientation angle, node 5, rad
         49     9.93686616421E-001,   3.40321264230E-003,  -1.12139537930E-001         F               0         Tower X orientation angle, node 6, rad
         50     2.37800017931E-003,   9.98676359653E-001,   5.13796918094E-002         F               0         Tower Y orientation angle, node 6, rad
         51     1.12165965140E-001,  -5.13219796121E-002,   9.92363274097E-001         F               0         Tower Z orientation angle, node 6, rad
         52     9.93686616421E-001,   3.40321264230E-003,  -1.12139537930E-001         F               0         Tower X orientation angle, node 7, rad
         53     2.37800017931E-003,   9.98676359653E-001,   5.13796918094E-002         F               0         Tower Y orientation angle, node 7, rad
         54     1.12165965140E-001,  -5.13219796121E-002,   9.92363274097E-001         F               0         Tower Z orientation angle, node 7, rad
         55     9.93686616421E-001,   3.40321264230E-003,  -1.12139537930E-001         F               0         Tower X orientation angle, node 8, rad
         56     2.37800017931E-003,   9.98676359653E-001,   5.13796918094E-002         F               0         Tower Y orientation angle, node 8, rad
         57     1.12165965140E-001,  -5.13219796121E-002,   9.92363274097E-001         F               0         Tower Z orientation angle, node 8, rad
         58     9.93686616421E-001,   3.40321287513E-003,  -1.12139545381E-001         F               0         Tower X orientation angle, node 9, rad
         59     2.37800041214E-003,   9.98676359653E-001,   5.13796918094E-002         F               0         Tower Y orientation angle, node 9, rad
         60     1.12165965140E-001,  -5.13219833374E-002,   9.92363274097E-001         F               0         Tower Z orientation angle, node 9, rad
         61     9.93686616421E-001,   3.40321264230E-003,  -1.12139537930E-001         F               0         Tower X orientation angle, node 10, rad
         62     2.37800017931E-003,   9.98676359653E-001,   5.13796918094E-002         F               0         Tower Y orientation angle, node 10, rad
         63     1.12165965140E-001,  -5.13219796121E-002,   9.92363274097E-001         F               0         Tower Z orientation angle, node 10, rad
         64     9.93686616421E-001,   3.40321264230E-003,  -1.12139537930E-001         F               0         Tower X orientation angle, node 11, rad
         65     2.37800017931E-003,   9.98676359653E-001,   5.13796918094E-002         F               0         Tower Y orientation angle, node 11, rad
         66     1.12165965140E-001,  -5.13219796121E-002,   9.92363274097E-001         F               0         Tower Z orientation angle, node 11, rad
         67     2.45845410973E-004                                                     F               0         Tower X translation velocity, node 1, m/s
         68     1.08686904423E-003                                                     F               0         Tower Y translation velocity, node 1, m/s
         69     3.43374744989E-003                                                     F               0         Tower Z translation velocity, node 1, m/s
         70     3.57567711035E-004                                                     F               0         Tower X translation velocity, node 2, m/s
         71     1.52488343883E-003                                                     F               0         Tower Y translation velocity, node 2, m/s
         72     3.44377243891E-003                                                     F               0         Tower Z translation velocity, node 2, m/s
         73     4.69290069304E-004                                                     F               0         Tower X translation velocity, node 3, m/s
         74     1.96289806627E-003                                                     F               0         Tower Y translation velocity, node 3, m/s
         75     3.45379719511E-003                                                     F               0         Tower Z translation velocity, node 3, m/s
         76     5.81012340263E-004                                                     F               0         Tower X translation velocity, node 4, m/s
         77     2.40091234446E-003                                                     F               0         Tower Y translation velocity, node 4, m/s
         78     3.46382195130E-003                                                     F               0         Tower Z translation velocity, node 4, m/s
         79     6.92734669428E-004                                                     F               0         Tower X translation velocity, node 5, m/s
         80     2.83892708831E-003                                                     F               0         Tower Y translation velocity, node 5, m/s
         81     3.47384717315E-003                                                     F               0         Tower Z translation velocity, node 5, m/s
         82     8.04456940386E-004                                                     F               0         Tower X translation velocity, node 6, m/s
         83     3.27694113366E-003                                                     F               0         Tower Y translation velocity, node 6, m/s
         84     3.48387192935E-003                                                     F               0         Tower Z translation velocity, node 6, m/s
         85     9.16179385968E-004                                                     F               0         Tower X translation velocity, node 7, m/s
         86     3.71495611034E-003                                                     F               0         Tower Y translation velocity, node 7, m/s
         87     3.49389668554E-003                                                     F               0         Tower Z translation velocity, node 7, m/s
         88     1.02790154051E-003                                                     F               0         Tower X translation velocity, node 8, m/s
         89     4.15297038853E-003                                                     F               0         Tower Y translation velocity, node 8, m/s
         90     3.50392144173E-003                                                     F               0         Tower Z translation velocity, node 8, m/s
         91     1.13962404430E-003                                                     F               0         Tower X translation velocity, node 9, m/s
         92     4.59098489955E-003                                                     F               0         Tower Y translation velocity, node 9, m/s
         93     3.51394666359E-003                                                     F               0         Tower Z translation velocity, node 9, m/s
         94     1.25134631526E-003                                                     F               0         Tower X translation velocity, node 10, m/s
         95     5.02899941057E-003                                                     F               0         Tower Y translation velocity, node 10, m/s
         96     3.52397141978E-003                                                     F               0         Tower Z translation velocity, node 10, m/s
         97     1.36306858622E-003                                                     F               0         Tower X translation velocity, node 11, m/s
         98     5.46701392159E-003                                                     F               0         Tower Y translation velocity, node 11, m/s
         99     3.53399617597E-003                                                     F               0         Tower Z translation velocity, node 11, m/s
        100     2.55092601776E+001                                                     F               0         Hub X translation displacement, node 1, m
        101    -8.34165859222E+000                                                     F               0         Hub Y translation displacement, node 1, m
        102    -6.43630772829E-002                                                     F               0         Hub Z translation displacement, node 1, m
        103     9.76518571377E-001,   8.74917767942E-003,  -2.15255439281E-001         F               0         Hub X orientation angle, node 1, rad
        104     2.39405152388E-003,   9.98672604561E-001,   5.14523573220E-002         F               0         Hub Y orientation angle, node 1, rad
        105     2.15419873595E-001,  -5.07595129311E-002,   9.75201368332E-001         F               0         Hub Z orientation angle, node 1, rad
        106     7.73062169552E-001                                                     F               0         Hub X rotation velocity, node 1, rad/s
        107     6.93582743406E-003                                                     F               0         Hub Y rotation velocity, node 1, rad/s
        108    -1.70417010784E-001                                                     F               0         Hub Z rotation velocity, node 1, rad/s
        109     9.66468632221E-001,  -1.31843611598E-001,  -2.20353335142E-001         F               0         Blade root 1 X orientation angle, node 1, rad
        110     1.39759108424E-001,   9.89970088005E-001,   2.06557456404E-002         F               0         Blade root 1 Y orientation angle, node 1, rad
        111     2.15419873595E-001,  -5.07595129311E-002,   9.75201368332E-001         F               0         Blade root 1 Z orientation angle, node 1, rad
        112     9.40726459026E-001,   8.50997418165E-002,  -3.28316628933E-001         F               0         Blade root 2 X orientation angle, node 1, rad
        113     3.20907175541E-001,  -5.36660373211E-001,   7.80393600464E-001         F               0         Blade root 2 Y orientation angle, node 1, rad
        114    -1.09783247113E-001,  -8.39496076107E-001,  -5.32159745693E-001         F               0         Blade root 2 Z orientation angle, node 1, rad
        115     9.93221342564E-001,   7.27303251624E-002,  -9.06731337309E-002         F               0         Blade root 3 X orientation angle, node 1, rad
        116    -4.84996959567E-002,  -4.49616849422E-001,  -8.91903877258E-001         F               0         Blade root 3 Y orientation angle, node 1, rad
        117    -1.05636626482E-001,   8.90255570412E-001,  -4.43041652441E-001         F               0         Blade root 3 Z orientation angle, node 1, rad
        118     2.61235980988E+001                                                     F               0         Blade 1 X translation displacement, node 1, m
        119    -8.62286567688E+000                                                     F               0         Blade 1 Y translation displacement, node 1, m
        120    -1.71406224370E-001                                                     F               0         Blade 1 Z translation displacement, node 1, m
        121     2.62716293335E+001                                                     F               0         Blade 1 X translation displacement, node 2, m
        122    -8.69062519073E+000                                                     F               0         Blade 1 Y translation displacement, node 2, m
        123    -1.97194904089E-001                                                     F               0         Blade 1 Z translation displacement, node 2, m
        124     2.82845745087E+001                                                     F               0         Blade 1 X translation displacement, node 3, m
        125    -9.61203289032E+000                                                     F               0         Blade 1 Y translation displacement, node 3, m
        126    -5.47905743122E-001                                                     F               0         Blade 1 Z translation displacement, node 3, m
        127     2.87134437561E+001                                                     F               0         Blade 1 X translation displacement, node 4, m
        128    -9.80834388733E+000                                                     F               0         Blade 1 Y translation displacement, node 4, m
        129    -6.22635006905E-001                                                     F               0         Blade 1 Z translation displacement, node 4, m
        130     2.91423969269E+001                                                     F               0         Blade 1 X translation displacement, node 5, m
        131    -1.00046920776E+001                                                     F               0         Blade 1 Y translation displacement, node 5, m
        132    -6.97362899780E-001                                                     F               0         Blade 1 Z translation displacement, node 5, m
        133     2.95712680817E+001                                                     F               0         Blade 1 X translation displacement, node 6, m
        134    -1.02010049820E+001                                                     F               0         Blade 1 Y translation displacement, node 6, m
        135    -7.72092282772E-001                                                     F               0         Blade 1 Z translation displacement, node 6, m
        136     3.00001411438E+001                                                     F               0         Blade 1 X translation displacement, node 7, m
        137    -1.03973169327E+001                                                     F               0         Blade 1 Y translation displacement, node 7, m
        138    -8.46808493137E-001                                                     F               0         Blade 1 Z translation displacement, node 7, m
        139     3.04290904999E+001                                                     F               0         Blade 1 X translation displacement, node 8, m
        140    -1.05936651230E+001                                                     F               0         Blade 1 Y translation displacement, node 8, m
        141    -9.21551465988E-001                                                     F               0         Blade 1 Z translation displacement, node 8, m
        142     3.08579635620E+001                                                     F               0         Blade 1 X translation displacement, node 9, m
        143    -1.07899780273E+001                                                     F               0         Blade 1 Y translation displacement, node 9, m
        144    -9.96265769005E-001                                                     F               0         Blade 1 Z translation displacement, node 9, m
        145     3.12868366241E+001                                                     F               0         Blade 1 X translation displacement, node 10, m
        146    -1.09862899780E+001                                                     F               0         Blade 1 Y translation displacement, node 10, m
        147    -1.07099521160E+000                                                     F               0         Blade 1 Z translation displacement, node 10, m
        148     3.17157096863E+001                                                     F               0         Blade 1 X translation displacement, node 11, m
        149    -1.11826028824E+001                                                     F               0         Blade 1 Y translation displacement, node 11, m
        150    -1.14570939541E+000                                                     F               0         Blade 1 Z translation displacement, node 11, m
        151     3.21446571350E+001                                                     F               0         Blade 1 X translation displacement, node 12, m
        152    -1.13789501190E+001                                                     F               0         Blade 1 Y translation displacement, node 12, m
        153    -1.22045242786E+000                                                     F               0         Blade 1 Z translation displacement, node 12, m
        154     3.25735321045E+001                                                     F               0         Blade 1 X translation displacement, node 13, m
        155    -1.15752630234E+001                                                     F               0         Blade 1 Y translation displacement, node 13, m
        156    -1.29516661167E+000                                                     F               0         Blade 1 Z translation displacement, node 13, m
        157     3.30024032593E+001                                                     F               0         Blade 1 X translation displacement, node 14, m
        158    -1.17715749741E+001                                                     F               0         Blade 1 Y translation displacement, node 14, m
        159    -1.36989605427E+000                                                     F               0         Blade 1 Z translation displacement, node 14, m
        160     3.34313545227E+001                                                     F               0         Blade 1 X translation displacement, node 15, m
        161    -1.19679231644E+001                                                     F               0         Blade 1 Y translation displacement, node 15, m
        162    -1.44462907314E+000                                                     F               0         Blade 1 Z translation displacement, node 15, m
        163     3.38602256775E+001                                                     F               0         Blade 1 X translation displacement, node 16, m
        164    -1.21642351151E+001                                                     F               0         Blade 1 Y translation displacement, node 16, m
        165    -1.51935589314E+000                                                     F               0         Blade 1 Z translation displacement, node 16, m
        166     3.42891006470E+001                                                     F               0         Blade 1 X translation displacement, node 17, m
        167    -1.23605489731E+001                                                     F               0         Blade 1 Y translation displacement, node 17, m
        168    -1.59406769276E+000                                                     F               0         Blade 1 Z translation displacement, node 17, m
        169     3.47179718018E+001                                                     F               0         Blade 1 X translation displacement, node 18, m
        170    -1.25568609238E+001                                                     F               0         Blade 1 Y translation displacement, node 18, m
        171    -1.66879451275E+000                                                     F               0         Blade 1 Z translation displacement, node 18, m
        172     3.51469192505E+001                                                     F               0         Blade 1 X translation displacement, node 19, m
        173    -1.27532081604E+001                                                     F               0         Blade 1 Y translation displacement, node 19, m
        174    -1.74353480339E+000                                                     F               0         Blade 1 Z translation displacement, node 19, m
        175     3.55757942200E+001                                                     F               0         Blade 1 X translation displacement, node 20, m
        176    -1.29495201111E+001                                                     F               0         Blade 1 Y translation displacement, node 20, m
        177    -1.81824636459E+000                                                     F               0         Blade 1 Z translation displacement, node 20, m
        178     3.60046653748E+001                                                     F               0         Blade 1 X translation displacement, node 21, m
        179    -1.31458330154E+001                                                     F               0         Blade 1 Y translation displacement, node 21, m
        180    -1.89297342300E+000                                                     F               0         Blade 1 Z translation displacement, node 21, m
        181     3.64336166382E+001                                                     F               0         Blade 1 X translation displacement, node 22, m
        182    -1.33421812057E+001                                                     F               0         Blade 1 Y translation displacement, node 22, m
        183    -1.96771371365E+000                                                     F               0         Blade 1 Z translation displacement, node 22, m