
Linearized model: Predictions were generated on 31-Jan-2024 at 12:35:17 using OpenFAST, compiled as a 64-bit application using single precision at commit v3.5.1
 linked with  NWTC Subroutine Library; ElastoDyn; InflowWind; AeroDyn; ServoDyn; HydroDyn; MAP++ (<1.20.10>, <Oct-20-2023>)

Description from the FAST input file: CCT-9 Campign 4 model. Input files to be run with OpenFAST 3.5.0. GitHub branch from Lu Wang (https://github.com/luwang00/openfast/tree/dev) compiled on March 7, 2023.

Simulation information:
   Simulation time:                   508.4000 s
   Rotor Speed:                         0.8937 rad/s
   Azimuth:                             1.9703 rad
   Wind Speed:                         10.0000 m/s
   Number of continuous states:        12
   Number of discrete states:           0
   Number of constraint states:         0
   Number of inputs:                 1890
   Number of outputs:                  19
   Jacobians included in this file?    No

Order of continuous states:
   Row/Column Operating Point                     Rotating Frame? Derivative Order Description
   ---------- ---------------                     --------------- ---------------- -----------
          1    8.160E+00                                 F               2         Platform horizontal surge translation DOF (internal DOF index = DOF_Sg), m
          2   -9.635E-02                                 F               2         Platform vertical heave translation DOF (internal DOF index = DOF_Hv), m
          3    7.098E-03                                 F               2         Platform yaw rotation DOF (internal DOF index = DOF_Y), rad
          4    3.855E-01                                 F               2         1st tower fore-aft bending mode DOF (internal DOF index = DOF_TFA1), m
          5    1.285E-03                                 F               2         2nd tower fore-aft bending mode DOF (internal DOF index = DOF_TFA2), m
          6    3.995E-01                                 F               2         Variable speed generator DOF (internal DOF index = DOF_GeAz), rad
          7   -2.901E-03                                 F               2         First time derivative of Platform horizontal surge translation DOF (internal DOF index = DOF_Sg), m/s
          8   -4.595E-03                                 F               2         First time derivative of Platform vertical heave translation DOF (internal DOF index = DOF_Hv), m/s
          9   -1.041E-06                                 F               2         First time derivative of Platform yaw rotation DOF (internal DOF index = DOF_Y), rad/s
         10   -4.016E-04                                 F               2         First time derivative of 1st tower fore-aft bending mode DOF (internal DOF index = DOF_TFA1), m/s
         11    2.931E-06                                 F               2         First time derivative of 2nd tower fore-aft bending mode DOF (internal DOF index = DOF_TFA2), m/s
         12    8.937E-01                                 F               2         First time derivative of Variable speed generator DOF (internal DOF index = DOF_GeAz), rad/s

Order of continuous state derivatives:
   Row/Column Operating Point                     Rotating Frame? Derivative Order Description
   ---------- ---------------                     --------------- ---------------- -----------
          1   -2.901E-03                                 F               2         First time derivative of Platform horizontal surge translation DOF (internal DOF index = DOF_Sg), m/s
          2   -4.595E-03                                 F               2         First time derivative of Platform vertical heave translation DOF (internal DOF index = DOF_Hv), m/s
          3   -1.041E-06                                 F               2         First time derivative of Platform yaw rotation DOF (internal DOF index = DOF_Y), rad/s
          4   -4.016E-04                                 F               2         First time derivative of 1st tower fore-aft bending mode DOF (internal DOF index = DOF_TFA1), m/s
          5    2.931E-06                                 F               2         First time derivative of 2nd tower fore-aft bending mode DOF (internal DOF index = DOF_TFA2), m/s
          6    8.937E-01                                 F               2         First time derivative of Variable speed generator DOF (internal DOF index = DOF_GeAz), rad/s
          7   -2.416E-04                                 F               2         First time derivative of First time derivative of Platform horizontal surge translation DOF (internal DOF index = DOF_Sg), m/s/s
          8    2.180E-03                                 F               2         First time derivative of First time derivative of Platform vertical heave translation DOF (internal DOF index = DOF_Hv), m/s/s
          9    3.263E-06                                 F               2         First time derivative of First time derivative of Platform yaw rotation DOF (internal DOF index = DOF_Y), rad/s/s
         10   -4.136E-04                                 F               2         First time derivative of First time derivative of 1st tower fore-aft bending mode DOF (internal DOF index = DOF_TFA1), m/s/s
         11    7.613E-06                                 F               2         First time derivative of First time derivative of 2nd tower fore-aft bending mode DOF (internal DOF index = DOF_TFA2), m/s/s
         12    1.745E-04                                 F               2         First time derivative of First time derivative of Variable speed generator DOF (internal DOF index = DOF_GeAz), rad/s/s

Order of inputs:
     Column   Operating Point                     Rotating Frame? Derivative Order Description
   ---------- ---------------                     --------------- ---------------- -----------
          1    9.172E+01                                 F               0         Blade 1 X force, node 1, N
          2   -4.675E+01                                 F               0         Blade 1 Y force, node 1, N
          3    9.002E+01                                 F               0         Blade 1 Z force, node 1, N
          4    3.542E+02                                 F               0         Blade 1 X force, node 2, N
          5   -8.105E+01                                 F               0         Blade 1 Y force, node 2, N
          6    1.361E+02                                 F               0         Blade 1 Z force, node 2, N
          7    4.374E+02                                 F               0         Blade 1 X force, node 3, N
          8   -5.194E+01                                 F               0         Blade 1 Y force, node 3, N
          9    6.577E+01                                 F               0         Blade 1 Z force, node 3, N
         10    5.585E+02                                 F               0         Blade 1 X force, node 4, N
         11   -3.325E+01                                 F               0         Blade 1 Y force, node 4, N
         12    1.367E+01                                 F               0         Blade 1 Z force, node 4, N
         13    6.797E+02                                 F               0         Blade 1 X force, node 5, N
         14   -1.456E+01                                 F               0         Blade 1 Y force, node 5, N
         15   -3.844E+01                                 F               0         Blade 1 Z force, node 5, N
         16    8.009E+02                                 F               0         Blade 1 X force, node 6, N
         17    4.134E+00                                 F               0         Blade 1 Y force, node 6, N
         18   -9.054E+01                                 F               0         Blade 1 Z force, node 6, N
         19    9.221E+02                                 F               0         Blade 1 X force, node 7, N
         20    2.283E+01                                 F               0         Blade 1 Y force, node 7, N
         21   -1.426E+02                                 F               0         Blade 1 Z force, node 7, N
         22    1.043E+03                                 F               0         Blade 1 X force, node 8, N
         23    4.152E+01                                 F               0         Blade 1 Y force, node 8, N
         24   -1.947E+02                                 F               0         Blade 1 Z force, node 8, N
         25    1.164E+03                                 F               0         Blade 1 X force, node 9, N
         26    6.021E+01                                 F               0         Blade 1 Y force, node 9, N
         27   -2.469E+02                                 F               0         Blade 1 Z force, node 9, N
         28    1.286E+03                                 F               0         Blade 1 X force, node 10, N
         29    7.891E+01                                 F               0         Blade 1 Y force, node 10, N
         30   -2.990E+02                                 F               0         Blade 1 Z force, node 10, N
         31    1.407E+03                                 F               0         Blade 1 X force, node 11, N
         32    9.760E+01                                 F               0         Blade 1 Y force, node 11, N
         33   -3.511E+02                                 F               0         Blade 1 Z force, node 11, N
         34    1.528E+03                                 F               0         Blade 1 X force, node 12, N
         35    1.163E+02                                 F               0         Blade 1 Y force, node 12, N
         36   -4.032E+02                                 F               0         Blade 1 Z force, node 12, N
         37    1.649E+03                                 F               0         Blade 1 X force, node 13, N
         38    1.350E+02                                 F               0         Blade 1 Y force, node 13, N
         39   -4.553E+02                                 F               0         Blade 1 Z force, node 13, N
         40    1.770E+03                                 F               0         Blade 1 X force, node 14, N
         41    1.537E+02                                 F               0         Blade 1 Y force, node 14, N
         42   -5.074E+02                                 F               0         Blade 1 Z force, node 14, N
         43    1.892E+03                                 F               0         Blade 1 X force, node 15, N
         44    1.724E+02                                 F               0         Blade 1 Y force, node 15, N
         45   -5.595E+02                                 F               0         Blade 1 Z force, node 15, N
         46    2.013E+03                                 F               0         Blade 1 X force, node 16, N
         47    1.911E+02                                 F               0         Blade 1 Y force, node 16, N
         48   -6.116E+02                                 F               0         Blade 1 Z force, node 16, N
         49    2.477E+03                                 F               0         Blade 1 X force, node 17, N
         50    2.425E+02                                 F               0         Blade 1 Y force, node 17, N
         51   -7.683E+02                                 F               0         Blade 1 Z force, node 17, N
         52    1.910E+03                                 F               0         Blade 1 X force, node 18, N
         53    1.817E+02                                 F               0         Blade 1 Y force, node 18, N
         54   -5.813E+02                                 F               0         Blade 1 Z force, node 18, N
         55    2.373E+03                                 F               0         Blade 1 X force, node 19, N
         56    2.155E+02                                 F               0         Blade 1 Y force, node 19, N
         57   -7.003E+02                                 F               0         Blade 1 Z force, node 19, N
         58    2.045E+03                                 F               0         Blade 1 X force, node 20, N
         59    1.779E+02                                 F               0         Blade 1 Y force, node 20, N
         60   -5.868E+02                                 F               0         Blade 1 Z force, node 20, N
         61    3.057E+03                                 F               0         Blade 1 X force, node 21, N
         62    2.527E+02                                 F               0         Blade 1 Y force, node 21, N
         63   -8.492E+02                                 F               0         Blade 1 Z force, node 21, N
         64    2.729E+03                                 F               0         Blade 1 X force, node 22, N
         65    2.142E+02                                 F               0         Blade 1 Y force, node 22, N
         66   -7.339E+02                                 F               0         Blade 1 Z force, node 22, N
         67    2.831E+03                                 F               0         Blade 1 X force, node 23, N
         68    2.121E+02                                 F               0         Blade 1 Y force, node 23, N
         69   -7.397E+02                                 F               0         Blade 1 Z force, node 23, N
         70    2.983E+03                                 F               0         Blade 1 X force, node 24, N
         71    2.135E+02                                 F               0         Blade 1 Y force, node 24, N
         72   -7.584E+02                                 F               0         Blade 1 Z force, node 24, N
         73    3.083E+03                                 F               0         Blade 1 X force, node 25, N
         74    2.108E+02                                 F               0         Blade 1 Y force, node 25, N
         75   -7.628E+02                                 F               0         Blade 1 Z force, node 25, N
         76    3.200E+03                                 F               0         Blade 1 X force, node 26, N
         77    2.092E+02                                 F               0         Blade 1 Y force, node 26, N
         78   -7.714E+02                                 F               0         Blade 1 Z force, node 26, N
         79    3.865E+03                                 F               0         Blade 1 X force, node 27, N
         80    2.413E+02                                 F               0         Blade 1 Y force, node 27, N
         81   -9.074E+02                                 F               0         Blade 1 Z force, node 27, N
         82    2.886E+03                                 F               0         Blade 1 X force, node 28, N
         83    1.722E+02                                 F               0         Blade 1 Y force, node 28, N
         84   -6.606E+02                                 F               0         Blade 1 Z force, node 28, N
         85    3.551E+03                                 F               0         Blade 1 X force, node 29, N
         86    2.039E+02                                 F               0         Blade 1 Y force, node 29, N
         87   -7.959E+02                                 F               0         Blade 1 Z force, node 29, N
         88    3.037E+03                                 F               0         Blade 1 X force, node 30, N
         89    1.681E+02                                 F               0         Blade 1 Y force, node 30, N
         90   -6.673E+02                                 F               0         Blade 1 Z force, node 30, N
         91    4.415E+03                                 F               0         Blade 1 X force, node 31, N
         92    2.339E+02                                 F               0         Blade 1 Y force, node 31, N
         93   -9.477E+02                                 F               0         Blade 1 Z force, node 31, N
         94    3.900E+03                                 F               0         Blade 1 X force, node 32, N
         95    1.977E+02                                 F               0         Blade 1 Y force, node 32, N
         96   -8.182E+02                                 F               0         Blade 1 Z force, node 32, N
         97    4.015E+03                                 F               0         Blade 1 X force, node 33, N
         98    1.954E+02                                 F               0         Blade 1 Y force, node 33, N
         99   -8.251E+02                                 F               0         Blade 1 Z force, node 33, N
        100    4.132E+03                                 F               0         Blade 1 X force, node 34, N
        101    1.931E+02                                 F               0         Blade 1 Y force, node 34, N
        102   -8.321E+02                                 F               0         Blade 1 Z force, node 34, N
        103    4.248E+03                                 F               0         Blade 1 X force, node 35, N
        104    1.906E+02                                 F               0         Blade 1 Y force, node 35, N
        105   -8.388E+02                                 F               0         Blade 1 Z force, node 35, N
        106    4.362E+03                                 F               0         Blade 1 X force, node 36, N
        107    1.881E+02                                 F               0         Blade 1 Y force, node 36, N
        108   -8.452E+02                                 F               0         Blade 1 Z force, node 36, N
        109    5.240E+03                                 F               0         Blade 1 X force, node 37, N
        110    2.167E+02                                 F               0         Blade 1 Y force, node 37, N
        111   -9.955E+02                                 F               0         Blade 1 Z force, node 37, N
        112    3.831E+03                                 F               0         Blade 1 X force, node 38, N
        113    1.520E+02                                 F               0         Blade 1 Y force, node 38, N
        114   -7.142E+02                                 F               0         Blade 1 Z force, node 38, N
        115    4.710E+03                                 F               0         Blade 1 X force, node 39, N
        116    1.805E+02                                 F               0         Blade 1 Y force, node 39, N
        117   -8.644E+02                                 F               0         Blade 1 Z force, node 39, N
        118    4.028E+03                                 F               0         Blade 1 X force, node 40, N
        119    1.491E+02                                 F               0         Blade 1 Y force, node 40, N
        120   -7.281E+02                                 F               0         Blade 1 Z force, node 40, N
        121    5.740E+03                                 F               0         Blade 1 X force, node 41, N
        122    2.040E+02                                 F               0         Blade 1 Y force, node 41, N
        123   -1.020E+03                                 F               0         Blade 1 Z force, node 41, N
        124    5.056E+03                                 F               0         Blade 1 X force, node 42, N
        125    1.724E+02                                 F               0         Blade 1 Y force, node 42, N
        126   -8.826E+02                                 F               0         Blade 1 Z force, node 42, N
        127    5.170E+03                                 F               0         Blade 1 X force, node 43, N
        128    1.696E+02                                 F               0         Blade 1 Y force, node 43, N
        129   -8.882E+02                                 F               0         Blade 1 Z force, node 43, N
        130    5.312E+03                                 F               0         Blade 1 X force, node 44, N
        131    1.676E+02                                 F               0         Blade 1 Y force, node 44, N
        132   -8.985E+02                                 F               0         Blade 1 Z force, node 44, N
        133    5.370E+03                                 F               0         Blade 1 X force, node 45, N
        134    1.630E+02                                 F               0         Blade 1 Y force, node 45, N
        135   -8.945E+02                                 F               0         Blade 1 Z force, node 45, N
        136    5.512E+03                                 F               0         Blade 1 X force, node 46, N
        137    1.609E+02                                 F               0         Blade 1 Y force, node 46, N
        138   -9.047E+02                                 F               0         Blade 1 Z force, node 46, N
        139    6.614E+03                                 F               0         Blade 1 X force, node 47, N
        140    1.853E+02                                 F               0         Blade 1 Y force, node 47, N
        141   -1.069E+03                                 F               0         Blade 1 Z force, node 47, N
        142    4.751E+03                                 F               0         Blade 1 X force, node 48, N
        143    1.278E+02                                 F               0         Blade 1 Y force, node 48, N
        144   -7.566E+02                                 F               0         Blade 1 Z force, node 48, N
        145    5.852E+03                                 F               0         Blade 1 X force, node 49, N
        146    1.520E+02                                 F               0         Blade 1 Y force, node 49, N
        147   -9.205E+02                                 F               0         Blade 1 Z force, node 49, N
        148    5.016E+03                                 F               0         Blade 1 X force, node 50, N
        149    1.258E+02                                 F               0         Blade 1 Y force, node 50, N
        150   -7.794E+02                                 F               0         Blade 1 Z force, node 50, N
        151    7.029E+03                                 F               0         Blade 1 X force, node 51, N
        152    1.692E+02                                 F               0         Blade 1 Y force, node 51, N
        153   -1.077E+03                                 F               0         Blade 1 Z force, node 51, N
        154    6.194E+03                                 F               0         Blade 1 X force, node 52, N
        155    1.430E+02                                 F               0         Blade 1 Y force, node 52, N
        156   -9.362E+02                                 F               0         Blade 1 Z force, node 52, N
        157    6.309E+03                                 F               0         Blade 1 X force, node 53, N
        158    1.400E+02                                 F               0         Blade 1 Y force, node 53, N
        159   -9.416E+02                                 F               0         Blade 1 Z force, node 53, N
        160    6.494E+03                                 F               0         Blade 1 X force, node 54, N
        161    1.385E+02                                 F               0         Blade 1 Y force, node 54, N
        162   -9.573E+02                                 F               0         Blade 1 Z force, node 54, N
        163    6.467E+03                                 F               0         Blade 1 X force, node 55, N
        164    1.325E+02                                 F               0         Blade 1 Y force, node 55, N
        165   -9.417E+02                                 F               0         Blade 1 Z force, node 55, N
        166    6.651E+03                                 F               0         Blade 1 X force, node 56, N
        167    1.309E+02                                 F               0         Blade 1 Y force, node 56, N
        168   -9.571E+02                                 F               0         Blade 1 Z force, node 56, N
        169    7.990E+03                                 F               0         Blade 1 X force, node 57, N
        170    1.505E+02                                 F               0         Blade 1 Y force, node 57, N
        171   -1.136E+03                                 F               0         Blade 1 Z force, node 57, N
        172    5.654E+03                                 F               0         Blade 1 X force, node 58, N
        173    1.020E+02                                 F               0         Blade 1 Y force, node 58, N
        174   -7.939E+02                                 F               0         Blade 1 Z force, node 58, N
        175    6.993E+03                                 F               0         Blade 1 X force, node 59, N
        176    1.216E+02                                 F               0         Blade 1 Y force, node 59, N
        177   -9.722E+02                                 F               0         Blade 1 Z force, node 59, N
        178    6.018E+03                                 F               0         Blade 1 X force, node 60, N
        179    1.007E+02                                 F               0         Blade 1 Y force, node 60, N
        180   -8.284E+02                                 F               0         Blade 1 Z force, node 60, N
        181    8.308E+03                                 F               0         Blade 1 X force, node 61, N
        182    1.330E+02                                 F               0         Blade 1 Y force, node 61, N
        183   -1.131E+03                                 F               0         Blade 1 Z force, node 61, N
        184    7.331E+03                                 F               0         Blade 1 X force, node 62, N
        185    1.120E+02                                 F               0         Blade 1 Y force, node 62, N
        186   -9.864E+02                                 F               0         Blade 1 Z force, node 62, N
        187    7.443E+03                                 F               0         Blade 1 X force, node 63, N
        188    1.088E+02                                 F               0         Blade 1 Y force, node 63, N
        189   -9.909E+02                                 F               0         Blade 1 Z force, node 63, N
        190    7.681E+03                                 F               0         Blade 1 X force, node 64, N
        191    1.073E+02                                 F               0         Blade 1 Y force, node 64, N
        192   -1.012E+03                                 F               0         Blade 1 Z force, node 64, N
        193    7.542E+03                                 F               0         Blade 1 X force, node 65, N
        194    1.006E+02                                 F               0         Blade 1 Y force, node 65, N
        195   -9.838E+02                                 F               0         Blade 1 Z force, node 65, N
        196    7.784E+03                                 F               0         Blade 1 X force, node 66, N
        197    9.923E+01                                 F               0         Blade 1 Y force, node 66, N
        198   -1.005E+03                                 F               0         Blade 1 Z force, node 66, N
        199    9.371E+03                                 F               0         Blade 1 X force, node 67, N
        200    1.136E+02                                 F               0         Blade 1 Y force, node 67, N
        201   -1.198E+03                                 F               0         Blade 1 Z force, node 67, N
        202    6.541E+03                                 F               0         Blade 1 X force, node 68, N
        203    7.537E+01                                 F               0         Blade 1 Y force, node 68, N
        204   -8.279E+02                                 F               0         Blade 1 Z force, node 68, N
        205    8.126E+03                                 F               0         Blade 1 X force, node 69, N
        206    8.963E+01                                 F               0         Blade 1 Y force, node 69, N
        207   -1.020E+03                                 F               0         Blade 1 Z force, node 69, N
        208    7.026E+03                                 F               0         Blade 1 X force, node 70, N
        209    7.402E+01                                 F               0         Blade 1 Y force, node 70, N
        210   -8.745E+02                                 F               0         Blade 1 Z force, node 70, N
        211    9.563E+03                                 F               0         Blade 1 X force, node 71, N
        212    9.538E+01                                 F               0         Blade 1 Y force, node 71, N
        213   -1.179E+03                                 F               0         Blade 1 Z force, node 71, N
        214    8.459E+03                                 F               0         Blade 1 X force, node 72, N
        215    7.955E+01                                 F               0         Blade 1 Y force, node 72, N
        216   -1.033E+03                                 F               0         Blade 1 Z force, node 72, N
        217    8.568E+03                                 F               0         Blade 1 X force, node 73, N