
Linearized model: Predictions were generated on 31-Jan-2024 at 12:35:17 using OpenFAST, compiled as a 64-bit application using single precision at commit v3.5.1
 linked with  NWTC Subroutine Library; ElastoDyn; InflowWind; AeroDyn; ServoDyn; HydroDyn; MAP++ (<1.20.10>, <Oct-20-2023>)

Description from the FAST input file: CCT-9 Campign 4 model. Input files to be run with OpenFAST 3.5.0. GitHub branch from Lu Wang (https://github.com/luwang00/openfast/tree/dev) compiled on March 7, 2023.

Simulation information:
   Simulation time:                   503.4750 s
   Rotor Speed:                         0.8939 rad/s
   Azimuth:                             3.8518 rad
   Wind Speed:                         10.0000 m/s
   Number of continuous states:         0
   Number of discrete states:           0
   Number of constraint states:         0
   Number of inputs:                 1746
   Number of outputs:                   4
   Jacobians included in this file?    No

Order of inputs:
     Column   Operating Point                     Rotating Frame? Derivative Order Description
   ---------- ---------------                     --------------- ---------------- -----------
          1    8.514E+00                                 F               0         Tower X translation displacement, node 1, m
          2   -1.355E+00                                 F               0         Tower Y translation displacement, node 1, m
          3   -8.075E-02                                 F               0         Tower Z translation displacement, node 1, m
          4    8.751E+00                                 F               0         Tower X translation displacement, node 2, m
          5   -1.887E+00                                 F               0         Tower Y translation displacement, node 2, m
          6   -9.451E-02                                 F               0         Tower Z translation displacement, node 2, m
          7    9.001E+00                                 F               0         Tower X translation displacement, node 3, m
          8   -2.420E+00                                 F               0         Tower Y translation displacement, node 3, m
          9   -1.085E-01                                 F               0         Tower Z translation displacement, node 3, m
         10    9.260E+00                                 F               0         Tower X translation displacement, node 4, m
         11   -2.952E+00                                 F               0         Tower Y translation displacement, node 4, m
         12   -1.227E-01                                 F               0         Tower Z translation displacement, node 4, m
         13    9.528E+00                                 F               0         Tower X translation displacement, node 5, m
         14   -3.485E+00                                 F               0         Tower Y translation displacement, node 5, m
         15   -1.371E-01                                 F               0         Tower Z translation displacement, node 5, m
         16    9.801E+00                                 F               0         Tower X translation displacement, node 6, m
         17   -4.017E+00                                 F               0         Tower Y translation displacement, node 6, m
         18   -1.516E-01                                 F               0         Tower Z translation displacement, node 6, m
         19    1.008E+01                                 F               0         Tower X translation displacement, node 7, m
         20   -4.549E+00                                 F               0         Tower Y translation displacement, node 7, m
         21   -1.662E-01                                 F               0         Tower Z translation displacement, node 7, m
         22    1.036E+01                                 F               0         Tower X translation displacement, node 8, m
         23   -5.082E+00                                 F               0         Tower Y translation displacement, node 8, m
         24   -1.809E-01                                 F               0         Tower Z translation displacement, node 8, m
         25    1.064E+01                                 F               0         Tower X translation displacement, node 9, m
         26   -5.614E+00                                 F               0         Tower Y translation displacement, node 9, m
         27   -1.956E-01                                 F               0         Tower Z translation displacement, node 9, m
         28    1.093E+01                                 F               0         Tower X translation displacement, node 10, m
         29   -6.146E+00                                 F               0         Tower Y translation displacement, node 10, m
         30   -2.103E-01                                 F               0         Tower Z translation displacement, node 10, m
         31    1.121E+01                                 F               0         Tower X translation displacement, node 11, m
         32   -6.679E+00                                 F               0         Tower Y translation displacement, node 11, m
         33   -2.251E-01                                 F               0         Tower Z translation displacement, node 11, m
         34    9.998E-01,  7.490E-03, -1.841E-02         F               0         Tower X orientation angle, node 1, rad
         35   -6.687E-03,  9.990E-01,  4.325E-02         F               0         Tower Y orientation angle, node 1, rad
         36    1.872E-02, -4.312E-02,  9.989E-01         F               0         Tower Z orientation angle, node 1, rad
         37    9.998E-01,  7.533E-03, -1.943E-02         F               0         Tower X orientation angle, node 2, rad
         38   -6.687E-03,  9.990E-01,  4.325E-02         F               0         Tower Y orientation angle, node 2, rad
         39    1.974E-02, -4.311E-02,  9.989E-01         F               0         Tower Z orientation angle, node 2, rad
         40    9.998E-01,  7.571E-03, -2.030E-02         F               0         Tower X orientation angle, node 3, rad
         41   -6.687E-03,  9.990E-01,  4.325E-02         F               0         Tower Y orientation angle, node 3, rad
         42    2.061E-02, -4.310E-02,  9.989E-01         F               0         Tower Z orientation angle, node 3, rad
         43    9.998E-01,  7.602E-03, -2.102E-02         F               0         Tower X orientation angle, node 4, rad
         44   -6.687E-03,  9.990E-01,  4.325E-02         F               0         Tower Y orientation angle, node 4, rad
         45    2.132E-02, -4.310E-02,  9.988E-01         F               0         Tower Z orientation angle, node 4, rad
         46    9.997E-01,  7.626E-03, -2.158E-02         F               0         Tower X orientation angle, node 5, rad
         47   -6.687E-03,  9.990E-01,  4.325E-02         F               0         Tower Y orientation angle, node 5, rad
         48    2.189E-02, -4.309E-02,  9.988E-01         F               0         Tower Z orientation angle, node 5, rad
         49    9.997E-01,  7.645E-03, -2.201E-02         F               0         Tower X orientation angle, node 6, rad
         50   -6.687E-03,  9.990E-01,  4.325E-02         F               0         Tower Y orientation angle, node 6, rad
         51    2.232E-02, -4.309E-02,  9.988E-01         F               0         Tower Z orientation angle, node 6, rad
         52    9.997E-01,  7.658E-03, -2.232E-02         F               0         Tower X orientation angle, node 7, rad
         53   -6.687E-03,  9.990E-01,  4.325E-02         F               0         Tower Y orientation angle, node 7, rad
         54    2.263E-02, -4.309E-02,  9.988E-01         F               0         Tower Z orientation angle, node 7, rad
         55    9.997E-01,  7.667E-03, -2.252E-02         F               0         Tower X orientation angle, node 8, rad
         56   -6.687E-03,  9.990E-01,  4.325E-02         F               0         Tower Y orientation angle, node 8, rad
         57    2.283E-02, -4.308E-02,  9.988E-01         F               0         Tower Z orientation angle, node 8, rad
         58    9.997E-01,  7.672E-03, -2.265E-02         F               0         Tower X orientation angle, node 9, rad
         59   -6.687E-03,  9.990E-01,  4.325E-02         F               0         Tower Y orientation angle, node 9, rad
         60    2.296E-02, -4.308E-02,  9.988E-01         F               0         Tower Z orientation angle, node 9, rad
         61    9.997E-01,  7.675E-03, -2.272E-02         F               0         Tower X orientation angle, node 10, rad
         62   -6.687E-03,  9.990E-01,  4.325E-02         F               0         Tower Y orientation angle, node 10, rad
         63    2.303E-02, -4.308E-02,  9.988E-01         F               0         Tower Z orientation angle, node 10, rad
         64    9.997E-01,  7.677E-03, -2.275E-02         F               0         Tower X orientation angle, node 11, rad
         65   -6.687E-03,  9.990E-01,  4.325E-02         F               0         Tower Y orientation angle, node 11, rad
         66    2.306E-02, -4.308E-02,  9.988E-01         F               0         Tower Z orientation angle, node 11, rad
         67   -1.157E-03                                 F               0         Tower X translation velocity, node 1, m/s
         68    1.486E-06                                 F               0         Tower Y translation velocity, node 1, m/s
         69   -6.471E-03                                 F               0         Tower Z translation velocity, node 1, m/s
         70   -1.159E-03                                 F               0         Tower X translation velocity, node 2, m/s
         71    2.483E-06                                 F               0         Tower Y translation velocity, node 2, m/s
         72   -6.470E-03                                 F               0         Tower Z translation velocity, node 2, m/s
         73   -1.171E-03                                 F               0         Tower X translation velocity, node 3, m/s
         74    3.457E-06                                 F               0         Tower Y translation velocity, node 3, m/s
         75   -6.470E-03                                 F               0         Tower Z translation velocity, node 3, m/s
         76   -1.192E-03                                 F               0         Tower X translation velocity, node 4, m/s
         77    4.401E-06                                 F               0         Tower Y translation velocity, node 4, m/s
         78   -6.470E-03                                 F               0         Tower Z translation velocity, node 4, m/s
         79   -1.223E-03                                 F               0         Tower X translation velocity, node 5, m/s
         80    5.308E-06                                 F               0         Tower Y translation velocity, node 5, m/s
         81   -6.469E-03                                 F               0         Tower Z translation velocity, node 5, m/s
         82   -1.263E-03                                 F               0         Tower X translation velocity, node 6, m/s
         83    6.170E-06                                 F               0         Tower Y translation velocity, node 6, m/s
         84   -6.468E-03                                 F               0         Tower Z translation velocity, node 6, m/s
         85   -1.310E-03                                 F               0         Tower X translation velocity, node 7, m/s
         86    6.990E-06                                 F               0         Tower Y translation velocity, node 7, m/s
         87   -6.467E-03                                 F               0         Tower Z translation velocity, node 7, m/s
         88   -1.366E-03                                 F               0         Tower X translation velocity, node 8, m/s
         89    7.764E-06                                 F               0         Tower Y translation velocity, node 8, m/s
         90   -6.466E-03                                 F               0         Tower Z translation velocity, node 8, m/s
         91   -1.428E-03                                 F               0         Tower X translation velocity, node 9, m/s
         92    8.497E-06                                 F               0         Tower Y translation velocity, node 9, m/s
         93   -6.464E-03                                 F               0         Tower Z translation velocity, node 9, m/s
         94   -1.494E-03                                 F               0         Tower X translation velocity, node 10, m/s
         95    9.196E-06                                 F               0         Tower Y translation velocity, node 10, m/s
         96   -6.463E-03                                 F               0         Tower Z translation velocity, node 10, m/s
         97   -1.565E-03                                 F               0         Tower X translation velocity, node 11, m/s
         98    9.872E-06                                 F               0         Tower Y translation velocity, node 11, m/s
         99   -6.461E-03                                 F               0         Tower Z translation velocity, node 11, m/s
        100    1.140E+01                                 F               0         Hub X translation displacement, node 1, m
        101   -7.100E+00                                 F               0         Hub Y translation displacement, node 1, m
        102    1.120E-02                                 F               0         Hub Z translation displacement, node 1, m
        103    9.918E-01,  1.214E-02, -1.270E-01         F               0         Hub X orientation angle, node 1, rad
        104   -7.801E-02, -7.301E-01, -6.789E-01         F               0         Hub Y orientation angle, node 1, rad
        105   -1.010E-01,  6.833E-01, -7.232E-01         F               0         Hub Z orientation angle, node 1, rad
        106    8.866E-01                                 F               0         Hub X rotation velocity, node 1, rad/s
        107    1.084E-02                                 F               0         Hub Y rotation velocity, node 1, rad/s
        108   -1.135E-01                                 F               0         Hub Z rotation velocity, node 1, rad/s
        109    9.937E-01,  3.379E-02, -1.068E-01         F               0         Blade root 1 X orientation angle, node 1, rad
        110   -4.855E-02, -7.294E-01, -6.824E-01         F               0         Blade root 1 Y orientation angle, node 1, rad
        111   -1.010E-01,  6.833E-01, -7.232E-01         F               0         Blade root 1 Z orientation angle, node 1, rad
        112    9.928E-01, -1.625E-02, -1.185E-01         F               0         Blade root 2 X orientation angle, node 1, rad
        113   -1.900E-02,  9.567E-01, -2.905E-01         F               0         Blade root 2 Y orientation angle, node 1, rad
        114    1.181E-01,  2.906E-01,  9.495E-01         F               0         Blade root 2 Z orientation angle, node 1, rad
        115    9.876E-01,  1.886E-02, -1.556E-01         F               0         Blade root 3 X orientation angle, node 1, rad
        116    1.558E-01, -2.262E-01,  9.615E-01         F               0         Blade root 3 Y orientation angle, node 1, rad
        117   -1.707E-02, -9.739E-01, -2.264E-01         F               0         Blade root 3 Z orientation angle, node 1, rad
        118    1.026E+01                                 F               0         Blade 1 X translation displacement, node 1, m
        119   -3.315E+00                                 F               0         Blade 1 Y translation displacement, node 1, m
        120   -9.505E+00                                 F               0         Blade 1 Z translation displacement, node 1, m
        121    9.983E+00                                 F               0         Blade 1 X translation displacement, node 2, m
        122   -2.402E+00                                 F               0         Blade 1 Y translation displacement, node 2, m
        123   -1.180E+01                                 F               0         Blade 1 Z translation displacement, node 2, m
        124    6.253E+00                                 F               0         Blade 1 X translation displacement, node 3, m
        125    1.000E+01                                 F               0         Blade 1 Y translation displacement, node 3, m
        126   -4.298E+01                                 F               0         Blade 1 Z translation displacement, node 3, m
        127    5.458E+00                                 F               0         Blade 1 X translation displacement, node 4, m
        128    1.264E+01                                 F               0         Blade 1 Y translation displacement, node 4, m
        129   -4.962E+01                                 F               0         Blade 1 Z translation displacement, node 4, m
        130    4.663E+00                                 F               0         Blade 1 X translation displacement, node 5, m
        131    1.529E+01                                 F               0         Blade 1 Y translation displacement, node 5, m
        132   -5.627E+01                                 F               0         Blade 1 Z translation displacement, node 5, m
        133    3.868E+00                                 F               0         Blade 1 X translation displacement, node 6, m
        134    1.793E+01                                 F               0         Blade 1 Y translation displacement, node 6, m
        135   -6.291E+01                                 F               0         Blade 1 Z translation displacement, node 6, m
        136    3.074E+00                                 F               0         Blade 1 X translation displacement, node 7, m
        137    2.057E+01                                 F               0         Blade 1 Y translation displacement, node 7, m
        138   -6.955E+01                                 F               0         Blade 1 Z translation displacement, node 7, m
        139    2.279E+00                                 F               0         Blade 1 X translation displacement, node 8, m
        140    2.321E+01                                 F               0         Blade 1 Y translation displacement, node 8, m
        141   -7.620E+01                                 F               0         Blade 1 Z translation displacement, node 8, m
        142    1.484E+00                                 F               0         Blade 1 X translation displacement, node 9, m
        143    2.586E+01                                 F               0         Blade 1 Y translation displacement, node 9, m
        144   -8.284E+01                                 F               0         Blade 1 Z translation displacement, node 9, m
        145    6.890E-01                                 F               0         Blade 1 X translation displacement, node 10, m
        146    2.850E+01                                 F               0         Blade 1 Y translation displacement, node 10, m
        147   -8.948E+01                                 F               0         Blade 1 Z translation displacement, node 10, m
        148   -1.058E-01                                 F               0         Blade 1 X translation displacement, node 11, m
        149    3.114E+01                                 F               0         Blade 1 Y translation displacement, node 11, m
        150   -9.613E+01                                 F               0         Blade 1 Z translation displacement, node 11, m
        151   -9.007E-01                                 F               0         Blade 1 X translation displacement, node 12, m
        152    3.378E+01                                 F               0         Blade 1 Y translation displacement, node 12, m
        153   -1.028E+02                                 F               0         Blade 1 Z translation displacement, node 12, m
        154   -1.696E+00                                 F               0         Blade 1 X translation displacement, node 13, m
        155    3.643E+01                                 F               0         Blade 1 Y translation displacement, node 13, m
        156   -1.094E+02                                 F               0         Blade 1 Z translation displacement, node 13, m
        157   -2.490E+00                                 F               0         Blade 1 X translation displacement, node 14, m
        158    3.907E+01                                 F               0         Blade 1 Y translation displacement, node 14, m
        159   -1.161E+02                                 F               0         Blade 1 Z translation displacement, node 14, m
        160   -3.285E+00                                 F               0         Blade 1 X translation displacement, node 15, m
        161    4.171E+01                                 F               0         Blade 1 Y translation displacement, node 15, m
        162   -1.227E+02                                 F               0         Blade 1 Z translation displacement, node 15, m
        163   -4.080E+00                                 F               0         Blade 1 X translation displacement, node 16, m
        164    4.435E+01                                 F               0         Blade 1 Y translation displacement, node 16, m
        165   -1.293E+02                                 F               0         Blade 1 Z translation displacement, node 16, m
        166   -4.875E+00                                 F               0         Blade 1 X translation displacement, node 17, m
        167    4.700E+01                                 F               0         Blade 1 Y translation displacement, node 17, m
        168   -1.360E+02                                 F               0         Blade 1 Z translation displacement, node 17, m
        169   -5.670E+00                                 F               0         Blade 1 X translation displacement, node 18, m
        170    4.964E+01                                 F               0         Blade 1 Y translation displacement, node 18, m
        171   -1.426E+02                                 F               0         Blade 1 Z translation displacement, node 18, m
        172   -6.465E+00                                 F               0         Blade 1 X translation displacement, node 19, m
        173    5.228E+01                                 F               0         Blade 1 Y translation displacement, node 19, m
        174   -1.493E+02                                 F               0         Blade 1 Z translation displacement, node 19, m
        175   -7.259E+00                                 F               0         Blade 1 X translation displacement, node 20, m
        176    5.492E+01                                 F               0         Blade 1 Y translation displacement, node 20, m
        177   -1.559E+02                                 F               0         Blade 1 Z translation displacement, node 20, m
        178   -8.054E+00                                 F               0         Blade 1 X translation displacement, node 21, m
        179    5.757E+01                                 F               0         Blade 1 Y translation displacement, node 21, m
        180   -1.626E+02                                 F               0         Blade 1 Z translation displacement, node 21, m
        181   -8.849E+00                                 F               0         Blade 1 X translation displacement, node 22, m
        182    6.021E+01                                 F               0         Blade 1 Y translation displacement, node 22, m
        183   -1.692E+02                                 F               0         Blade 1 Z translation displacement, node 22, m
        184   -9.644E+00                                 F               0         Blade 1 X translation displacement, node 23, m
        185    6.285E+01                                 F               0         Blade 1 Y translation displacement, node 23, m
        186   -1.758E+02                                 F               0         Blade 1 Z translation displacement, node 23, m
        187   -1.044E+01                                 F               0         Blade 1 X translation displacement, node 24, m
        188    6.550E+01                                 F               0         Blade 1 Y translation displacement, node 24, m
        189   -1.825E+02                                 F               0         Blade 1 Z translation displacement, node 24, m
        190   -1.123E+01                                 F               0         Blade 1 X translation displacement, node 25, m
        191    6.814E+01                                 F               0         Blade 1 Y translation displacement, node 25, m
        192   -1.891E+02                                 F               0         Blade 1 Z translation displacement, node 25, m
        193   -1.203E+01                                 F               0         Blade 1 X translation displacement, node 26, m
        194    7.078E+01                                 F               0         Blade 1 Y translation displacement, node 26, m
        195   -1.958E+02                                 F               0         Blade 1 Z translation displacement, node 26, m
        196   -1.282E+01                                 F               0         Blade 1 X translation displacement, node 27, m
        197    7.342E+01                                 F               0         Blade 1 Y translation displacement, node 27, m
        198   -2.024E+02                                 F               0         Blade 1 Z translation displacement, node 27, m
        199   -1.350E+01                                 F               0         Blade 1 X translation displacement, node 28, m
        200    7.566E+01                                 F               0         Blade 1 Y translation displacement, node 28, m
        201   -2.081E+02                                 F               0         Blade 1 Z translation displacement, node 28, m
        202    9.065E-01,  3.627E-01,  2.161E-01         F               0         Blade 1 X orientation angle, node 1, rad
        203    4.099E-01, -6.337E-01, -6.560E-01         F               0         Blade 1 Y orientation angle, node 1, rad
        204   -1.010E-01,  6.833E-01, -7.232E-01         F               0         Blade 1 Z orientation angle, node 1, rad
        205    9.065E-01,  3.627E-01,  2.161E-01         F               0         Blade 1 X orientation angle, node 2, rad
        206    4.099E-01, -6.337E-01, -6.560E-01         F               0         Blade 1 Y orientation angle, node 2, rad
        207   -1.010E-01,  6.833E-01, -7.232E-01         F               0         Blade 1 Z orientation angle, node 2, rad
        208    9.778E-01,  2.022E-01,  5.446E-02         F               0         Blade 1 X orientation angle, node 3, rad
        209    1.834E-01, -7.016E-01, -6.885E-01         F               0         Blade 1 Y orientation angle, node 3, rad
        210   -1.010E-01,  6.833E-01, -7.232E-01         F               0         Blade 1 Z orientation angle, node 3, rad
        211    9.847E-01,  1.723E-01,  2.533E-02         F               0         Blade 1 X orientation angle, node 4, rad
        212    1.419E-01, -7.095E-01, -6.902E-01         F               0         Blade 1 Y orientation angle, node 4, rad
        213   -1.010E-01,  6.833E-01, -7.232E-01         F               0         Blade 1 Z orientation angle, node 4, rad
        214    9.889E-01,  1.487E-01,  2.437E-03         F               0         Blade 1 X orientation angle, node 5, rad
        215    1.092E-01, -7.149E-01, -6.907E-01         F               0         Blade 1 Y orientation angle, node 5, rad
        216   -1.010E-01,  6.833E-01, -7.232E-01         F               0         Blade 1 Z orientation angle, node 5, rad
        217    9.914E-01,  1.297E-01, -1.588E-02         F               0         Blade 1 X orientation angle, node 6, rad
        218    8.295E-02, -7.186E-01, -6.905E-01         F               0         Blade 1 Y orientation angle, node 6, rad
        219   -1.010E-01,  6.833E-01, -7.232E-01         F               0         Blade 1 Z orientation angle, node 6, rad
        220    9.930E-01,  1.140E-01, -3.094E-02         F               0         Blade 1 X orientation angle, node 7, rad
        221    6.130E-02, -7.212E-01, -6.900E-01         F               0         Blade 1 Y orientation angle, node 7, rad
        222   -1.010E-01,  6.833E-01, -7.232E-01         F               0         Blade 1 Z orientation angle, node 7, rad
        223    9.939E-01,  1.009E-01, -4.346E-02         F               0         Blade 1 X orientation angle, node 8, rad
        224    4.327E-02, -7.232E-01, -6.893E-01         F               0         Blade 1 Y orientation angle, node 8, rad
        225   -1.010E-01,  6.833E-01, -7.232E-01         F               0         Blade 1 Z orientation angle, node 8, rad
        226    9.945E-01,  8.978E-02, -5.404E-02         F               0         Blade 1 X orientation angle, node 9, rad
        227    2.800E-02, -7.246E-01, -6.886E-01         F               0         Blade 1 Y orientation angle, node 9, rad