
Linearized model: Predictions were generated on 31-Jan-2024 at 12:35:17 using OpenFAST, compiled as a 64-bit application using single precision at commit v3.5.1
 linked with  NWTC Subroutine Library; ElastoDyn; InflowWind; AeroDyn; ServoDyn; HydroDyn; MAP++ (<1.20.10>, <Oct-20-2023>)

Description from the FAST input file: CCT-9 Campign 4 model. Input files to be run with OpenFAST 3.5.0. GitHub branch from Lu Wang (https://github.com/luwang00/openfast/tree/dev) compiled on March 7, 2023.

Simulation information:
   Simulation time:                   504.4500 s
   Rotor Speed:                         0.8939 rad/s
   Azimuth:                             4.7234 rad
   Wind Speed:                         10.0000 m/s
   Number of continuous states:        12
   Number of discrete states:           0
   Number of constraint states:         0
   Number of inputs:                 1890
   Number of outputs:                  19
   Jacobians included in this file?    No

Order of continuous states:
   Row/Column Operating Point                     Rotating Frame? Derivative Order Description
   ---------- ---------------                     --------------- ---------------- -----------
          1    8.170E+00                                 F               2         Platform horizontal surge translation DOF (internal DOF index = DOF_Sg), m
          2   -6.750E-02                                 F               2         Platform vertical heave translation DOF (internal DOF index = DOF_Hv), m
          3    7.101E-03                                 F               2         Platform yaw rotation DOF (internal DOF index = DOF_Y), rad
          4    3.838E-01                                 F               2         1st tower fore-aft bending mode DOF (internal DOF index = DOF_TFA1), m
          5    1.292E-03                                 F               2         2nd tower fore-aft bending mode DOF (internal DOF index = DOF_TFA2), m
          6    3.153E+00                                 F               2         Variable speed generator DOF (internal DOF index = DOF_GeAz), rad
          7   -1.617E-03                                 F               2         First time derivative of Platform horizontal surge translation DOF (internal DOF index = DOF_Sg), m/s
          8   -7.804E-03                                 F               2         First time derivative of Platform vertical heave translation DOF (internal DOF index = DOF_Hv), m/s
          9    4.050E-06                                 F               2         First time derivative of Platform yaw rotation DOF (internal DOF index = DOF_Y), rad/s
         10    2.787E-04                                 F               2         First time derivative of 1st tower fore-aft bending mode DOF (internal DOF index = DOF_TFA1), m/s
         11   -2.556E-07                                 F               2         First time derivative of 2nd tower fore-aft bending mode DOF (internal DOF index = DOF_TFA2), m/s
         12    8.939E-01                                 F               2         First time derivative of Variable speed generator DOF (internal DOF index = DOF_GeAz), rad/s

Order of continuous state derivatives:
   Row/Column Operating Point                     Rotating Frame? Derivative Order Description
   ---------- ---------------                     --------------- ---------------- -----------
          1   -1.617E-03                                 F               2         First time derivative of Platform horizontal surge translation DOF (internal DOF index = DOF_Sg), m/s
          2   -7.804E-03                                 F               2         First time derivative of Platform vertical heave translation DOF (internal DOF index = DOF_Hv), m/s
          3    4.050E-06                                 F               2         First time derivative of Platform yaw rotation DOF (internal DOF index = DOF_Y), rad/s
          4    2.787E-04                                 F               2         First time derivative of 1st tower fore-aft bending mode DOF (internal DOF index = DOF_TFA1), m/s
          5   -2.556E-07                                 F               2         First time derivative of 2nd tower fore-aft bending mode DOF (internal DOF index = DOF_TFA2), m/s
          6    8.939E-01                                 F               2         First time derivative of Variable speed generator DOF (internal DOF index = DOF_GeAz), rad/s
          7   -4.458E-04                                 F               2         First time derivative of First time derivative of Platform horizontal surge translation DOF (internal DOF index = DOF_Sg), m/s/s
          8   -9.917E-04                                 F               2         First time derivative of First time derivative of Platform vertical heave translation DOF (internal DOF index = DOF_Hv), m/s/s
          9   -1.727E-06                                 F               2         First time derivative of First time derivative of Platform yaw rotation DOF (internal DOF index = DOF_Y), rad/s/s
         10    4.363E-04                                 F               2         First time derivative of First time derivative of 1st tower fore-aft bending mode DOF (internal DOF index = DOF_TFA1), m/s/s
         11   -3.866E-06                                 F               2         First time derivative of First time derivative of 2nd tower fore-aft bending mode DOF (internal DOF index = DOF_TFA2), m/s/s
         12   -8.503E-05                                 F               2         First time derivative of First time derivative of Variable speed generator DOF (internal DOF index = DOF_GeAz), rad/s/s

Order of inputs:
     Column   Operating Point                     Rotating Frame? Derivative Order Description
   ---------- ---------------                     --------------- ---------------- -----------
          1    6.426E+01                                 F               0         Blade 1 X force, node 1, N
          2    3.739E+00                                 F               0         Blade 1 Y force, node 1, N
          3   -6.266E+01                                 F               0         Blade 1 Z force, node 1, N
          4    2.977E+02                                 F               0         Blade 1 X force, node 2, N
          5    9.574E+00                                 F               0         Blade 1 Y force, node 2, N
          6   -1.475E+02                                 F               0         Blade 1 Z force, node 2, N
          7    4.150E+02                                 F               0         Blade 1 X force, node 3, N
          8    7.708E+00                                 F               0         Blade 1 Y force, node 3, N
          9   -1.016E+02                                 F               0         Blade 1 Z force, node 3, N
         10    5.640E+02                                 F               0         Blade 1 X force, node 4, N
         11    6.909E+00                                 F               0         Blade 1 Y force, node 4, N
         12   -7.231E+01                                 F               0         Blade 1 Z force, node 4, N
         13    7.131E+02                                 F               0         Blade 1 X force, node 5, N
         14    6.110E+00                                 F               0         Blade 1 Y force, node 5, N
         15   -4.302E+01                                 F               0         Blade 1 Z force, node 5, N
         16    8.621E+02                                 F               0         Blade 1 X force, node 6, N
         17    5.311E+00                                 F               0         Blade 1 Y force, node 6, N
         18   -1.373E+01                                 F               0         Blade 1 Z force, node 6, N
         19    1.011E+03                                 F               0         Blade 1 X force, node 7, N
         20    4.512E+00                                 F               0         Blade 1 Y force, node 7, N
         21    1.556E+01                                 F               0         Blade 1 Z force, node 7, N
         22    1.160E+03                                 F               0         Blade 1 X force, node 8, N
         23    3.713E+00                                 F               0         Blade 1 Y force, node 8, N
         24    4.485E+01                                 F               0         Blade 1 Z force, node 8, N
         25    1.309E+03                                 F               0         Blade 1 X force, node 9, N
         26    2.914E+00                                 F               0         Blade 1 Y force, node 9, N
         27    7.414E+01                                 F               0         Blade 1 Z force, node 9, N
         28    1.458E+03                                 F               0         Blade 1 X force, node 10, N
         29    2.115E+00                                 F               0         Blade 1 Y force, node 10, N
         30    1.034E+02                                 F               0         Blade 1 Z force, node 10, N
         31    1.607E+03                                 F               0         Blade 1 X force, node 11, N
         32    1.316E+00                                 F               0         Blade 1 Y force, node 11, N
         33    1.327E+02                                 F               0         Blade 1 Z force, node 11, N
         34    1.756E+03                                 F               0         Blade 1 X force, node 12, N
         35    5.171E-01                                 F               0         Blade 1 Y force, node 12, N
         36    1.620E+02                                 F               0         Blade 1 Z force, node 12, N
         37    1.905E+03                                 F               0         Blade 1 X force, node 13, N
         38   -2.819E-01                                 F               0         Blade 1 Y force, node 13, N
         39    1.913E+02                                 F               0         Blade 1 Z force, node 13, N
         40    2.054E+03                                 F               0         Blade 1 X force, node 14, N
         41   -1.081E+00                                 F               0         Blade 1 Y force, node 14, N
         42    2.206E+02                                 F               0         Blade 1 Z force, node 14, N
         43    2.204E+03                                 F               0         Blade 1 X force, node 15, N
         44   -1.880E+00                                 F               0         Blade 1 Y force, node 15, N
         45    2.499E+02                                 F               0         Blade 1 Z force, node 15, N
         46    2.353E+03                                 F               0         Blade 1 X force, node 16, N
         47   -2.679E+00                                 F               0         Blade 1 Y force, node 16, N
         48    2.792E+02                                 F               0         Blade 1 Z force, node 16, N
         49    2.901E+03                                 F               0         Blade 1 X force, node 17, N
         50   -3.867E+00                                 F               0         Blade 1 Y force, node 17, N
         51    3.547E+02                                 F               0         Blade 1 Z force, node 17, N
         52    2.220E+03                                 F               0         Blade 1 X force, node 18, N
         53   -1.881E+00                                 F               0         Blade 1 Y force, node 18, N
         54    2.515E+02                                 F               0         Blade 1 Z force, node 18, N
         55    2.729E+03                                 F               0         Blade 1 X force, node 19, N
         56   -5.350E-01                                 F               0         Blade 1 Y force, node 19, N
         57    2.764E+02                                 F               0         Blade 1 Z force, node 19, N
         58    2.330E+03                                 F               0         Blade 1 X force, node 20, N
         59    9.399E-01                                 F               0         Blade 1 Y force, node 20, N
         60    2.103E+02                                 F               0         Blade 1 Z force, node 20, N
         61    3.448E+03                                 F               0         Blade 1 X force, node 21, N
         62    3.680E+00                                 F               0         Blade 1 Y force, node 21, N
         63    2.689E+02                                 F               0         Blade 1 Z force, node 21, N
         64    3.048E+03                                 F               0         Blade 1 X force, node 22, N
         65    5.172E+00                                 F               0         Blade 1 Y force, node 22, N
         66    2.023E+02                                 F               0         Blade 1 Z force, node 22, N
         67    3.136E+03                                 F               0         Blade 1 X force, node 23, N
         68    7.036E+00                                 F               0         Blade 1 Y force, node 23, N
         69    1.765E+02                                 F               0         Blade 1 Z force, node 23, N
         70    3.279E+03                                 F               0         Blade 1 X force, node 24, N
         71    9.046E+00                                 F               0         Blade 1 Y force, node 24, N
         72    1.534E+02                                 F               0         Blade 1 Z force, node 24, N
         73    3.365E+03                                 F               0         Blade 1 X force, node 25, N
         74    1.091E+01                                 F               0         Blade 1 Y force, node 25, N
         75    1.274E+02                                 F               0         Blade 1 Z force, node 25, N
         76    3.470E+03                                 F               0         Blade 1 X force, node 26, N
         77    1.283E+01                                 F               0         Blade 1 Y force, node 26, N
         78    1.024E+02                                 F               0         Blade 1 Z force, node 26, N
         79    4.164E+03                                 F               0         Blade 1 X force, node 27, N
         80    1.728E+01                                 F               0         Blade 1 Y force, node 27, N
         81    8.802E+01                                 F               0         Blade 1 Z force, node 27, N
         82    3.091E+03                                 F               0         Blade 1 X force, node 28, N
         83    1.413E+01                                 F               0         Blade 1 Y force, node 28, N
         84    4.138E+01                                 F               0         Blade 1 Z force, node 28, N
         85    3.785E+03                                 F               0         Blade 1 X force, node 29, N
         86    1.858E+01                                 F               0         Blade 1 Y force, node 29, N
         87    2.699E+01                                 F               0         Blade 1 Z force, node 29, N
         88    3.223E+03                                 F               0         Blade 1 X force, node 30, N
         89    1.686E+01                                 F               0         Blade 1 Y force, node 30, N
         90    3.890E+00                                 F               0         Blade 1 Z force, node 30, N
         91    4.661E+03                                 F               0         Blade 1 X force, node 31, N
         92    2.606E+01                                 F               0         Blade 1 Y force, node 31, N
         93   -2.534E+01                                 F               0         Blade 1 Z force, node 31, N
         94    4.099E+03                                 F               0         Blade 1 X force, node 32, N
         95    2.434E+01                                 F               0         Blade 1 Y force, node 32, N
         96   -4.846E+01                                 F               0         Blade 1 Z force, node 32, N
         97    4.202E+03                                 F               0         Blade 1 X force, node 33, N
         98    2.625E+01                                 F               0         Blade 1 Y force, node 33, N
         99   -7.361E+01                                 F               0         Blade 1 Z force, node 33, N
        100    4.307E+03                                 F               0         Blade 1 X force, node 34, N
        101    2.817E+01                                 F               0         Blade 1 Y force, node 34, N
        102   -9.877E+01                                 F               0         Blade 1 Z force, node 34, N
        103    4.412E+03                                 F               0         Blade 1 X force, node 35, N
        104    3.009E+01                                 F               0         Blade 1 Y force, node 35, N
        105   -1.239E+02                                 F               0         Blade 1 Z force, node 35, N
        106    4.516E+03                                 F               0         Blade 1 X force, node 36, N
        107    3.200E+01                                 F               0         Blade 1 Y force, node 36, N
        108   -1.490E+02                                 F               0         Blade 1 Z force, node 36, N
        109    5.406E+03                                 F               0         Blade 1 X force, node 37, N
        110    3.977E+01                                 F               0         Blade 1 Y force, node 37, N
        111   -2.054E+02                                 F               0         Blade 1 Z force, node 37, N
        112    3.940E+03                                 F               0         Blade 1 X force, node 38, N
        113    2.999E+01                                 F               0         Blade 1 Y force, node 38, N
        114   -1.681E+02                                 F               0         Blade 1 Z force, node 38, N
        115    4.832E+03                                 F               0         Blade 1 X force, node 39, N
        116    3.776E+01                                 F               0         Blade 1 Y force, node 39, N
        117   -2.244E+02                                 F               0         Blade 1 Z force, node 39, N
        118    4.122E+03                                 F               0         Blade 1 X force, node 40, N
        119    3.303E+01                                 F               0         Blade 1 Y force, node 40, N
        120   -2.065E+02                                 F               0         Blade 1 Z force, node 40, N
        121    5.858E+03                                 F               0         Blade 1 X force, node 41, N
        122    4.825E+01                                 F               0         Blade 1 Y force, node 41, N
        123   -3.177E+02                                 F               0         Blade 1 Z force, node 41, N
        124    5.146E+03                                 F               0         Blade 1 X force, node 42, N
        125    4.352E+01                                 F               0         Blade 1 Y force, node 42, N
        126   -2.998E+02                                 F               0         Blade 1 Z force, node 42, N
        127    5.250E+03                                 F               0         Blade 1 X force, node 43, N
        128    4.543E+01                                 F               0         Blade 1 Y force, node 43, N
        129   -3.249E+02                                 F               0         Blade 1 Z force, node 43, N
        130    5.383E+03                                 F               0         Blade 1 X force, node 44, N
        131    4.759E+01                                 F               0         Blade 1 Y force, node 44, N
        132   -3.519E+02                                 F               0         Blade 1 Z force, node 44, N
        133    5.430E+03                                 F               0         Blade 1 X force, node 45, N
        134    4.900E+01                                 F               0         Blade 1 Y force, node 45, N
        135   -3.732E+02                                 F               0         Blade 1 Z force, node 45, N
        136    5.563E+03                                 F               0         Blade 1 X force, node 46, N
        137    5.117E+01                                 F               0         Blade 1 Y force, node 46, N
        138   -4.002E+02                                 F               0         Blade 1 Z force, node 46, N
        139    6.662E+03                                 F               0         Blade 1 X force, node 47, N
        140    6.247E+01                                 F               0         Blade 1 Y force, node 47, N
        141   -5.012E+02                                 F               0         Blade 1 Z force, node 47, N
        142    4.777E+03                                 F               0         Blade 1 X force, node 48, N
        143    4.561E+01                                 F               0         Blade 1 Y force, node 48, N
        144   -3.744E+02                                 F               0         Blade 1 Z force, node 48, N
        145    5.875E+03                                 F               0         Blade 1 X force, node 49, N
        146    5.690E+01                                 F               0         Blade 1 Y force, node 49, N
        147   -4.754E+02                                 F               0         Blade 1 Z force, node 49, N
        148    5.028E+03                                 F               0         Blade 1 X force, node 50, N
        149    4.938E+01                                 F               0         Blade 1 Y force, node 50, N
        150   -4.194E+02                                 F               0         Blade 1 Z force, node 50, N
        151    7.035E+03                                 F               0         Blade 1 X force, node 51, N
        152    7.016E+01                                 F               0         Blade 1 Y force, node 51, N
        153   -6.066E+02                                 F               0         Blade 1 Z force, node 51, N
        154    6.190E+03                                 F               0         Blade 1 X force, node 52, N
        155    6.264E+01                                 F               0         Blade 1 Y force, node 52, N
        156   -5.506E+02                                 F               0         Blade 1 Z force, node 52, N
        157    6.295E+03                                 F               0         Blade 1 X force, node 53, N
        158    6.456E+01                                 F               0         Blade 1 Y force, node 53, N
        159   -5.757E+02                                 F               0         Blade 1 Z force, node 53, N
        160    6.471E+03                                 F               0         Blade 1 X force, node 54, N
        161    6.722E+01                                 F               0         Blade 1 Y force, node 54, N
        162   -6.074E+02                                 F               0         Blade 1 Z force, node 54, N
        163    6.436E+03                                 F               0         Blade 1 X force, node 55, N
        164    6.766E+01                                 F               0         Blade 1 Y force, node 55, N
        165   -6.192E+02                                 F               0         Blade 1 Z force, node 55, N
        166    6.611E+03                                 F               0         Blade 1 X force, node 56, N
        167    7.032E+01                                 F               0         Blade 1 Y force, node 56, N
        168   -6.509E+02                                 F               0         Blade 1 Z force, node 56, N
        169    7.932E+03                                 F               0         Blade 1 X force, node 57, N
        170    8.537E+01                                 F               0         Blade 1 Y force, node 57, N
        171   -7.994E+02                                 F               0         Blade 1 Z force, node 57, N
        172    5.606E+03                                 F               0         Blade 1 X force, node 58, N
        173    6.101E+01                                 F               0         Blade 1 Y force, node 58, N
        174   -5.775E+02                                 F               0         Blade 1 Z force, node 58, N
        175    6.927E+03                                 F               0         Blade 1 X force, node 59, N
        176    7.607E+01                                 F               0         Blade 1 Y force, node 59, N
        177   -7.261E+02                                 F               0         Blade 1 Z force, node 59, N
        178    5.956E+03                                 F               0         Blade 1 X force, node 60, N
        179    6.598E+01                                 F               0         Blade 1 Y force, node 60, N
        180   -6.350E+02                                 F               0         Blade 1 Z force, node 60, N
        181    8.214E+03                                 F               0         Blade 1 X force, node 61, N
        182    9.190E+01                                 F               0         Blade 1 Y force, node 61, N
        183   -8.924E+02                                 F               0         Blade 1 Z force, node 61, N
        184    7.241E+03                                 F               0         Blade 1 X force, node 62, N
        185    8.180E+01                                 F               0         Blade 1 Y force, node 62, N
        186   -8.012E+02                                 F               0         Blade 1 Z force, node 62, N
        187    7.344E+03                                 F               0         Blade 1 X force, node 63, N
        188    8.370E+01                                 F               0         Blade 1 Y force, node 63, N
        189   -8.261E+02                                 F               0         Blade 1 Z force, node 63, N
        190    7.573E+03                                 F               0         Blade 1 X force, node 64, N
        191    8.704E+01                                 F               0         Blade 1 Y force, node 64, N
        192   -8.654E+02                                 F               0         Blade 1 Z force, node 64, N
        193    7.429E+03                                 F               0         Blade 1 X force, node 65, N
        194    8.609E+01                                 F               0         Blade 1 Y force, node 65, N
        195   -8.619E+02                                 F               0         Blade 1 Z force, node 65, N
        196    7.661E+03                                 F               0         Blade 1 X force, node 66, N
        197    8.946E+01                                 F               0         Blade 1 Y force, node 66, N
        198   -9.014E+02                                 F               0         Blade 1 Z force, node 66, N
        199    9.215E+03                                 F               0         Blade 1 X force, node 67, N
        200    1.085E+02                                 F               0         Blade 1 Y force, node 67, N
        201   -1.100E+03                                 F               0         Blade 1 Z force, node 67, N
        202    6.427E+03                                 F               0         Blade 1 X force, node 68, N
        203    7.623E+01                                 F               0         Blade 1 Y force, node 68, N
        204   -7.780E+02                                 F               0         Blade 1 Z force, node 68, N
        205    7.979E+03                                 F               0         Blade 1 X force, node 69, N
        206    9.524E+01                                 F               0         Blade 1 Y force, node 69, N
        207   -9.768E+02                                 F               0         Blade 1 Z force, node 69, N
        208    6.894E+03                                 F               0         Blade 1 X force, node 70, N
        209    8.280E+01                                 F               0         Blade 1 Y force, node 70, N
        210   -8.534E+02                                 F               0         Blade 1 Z force, node 70, N
        211    9.378E+03                                 F               0         Blade 1 X force, node 71, N
        212    1.134E+02                                 F               0         Blade 1 Y force, node 71, N
        213   -1.175E+03                                 F               0         Blade 1 Z force, node 71, N
        214    8.289E+03                                 F               0         Blade 1 X force, node 72, N
        215    1.010E+02                                 F               0         Blade 1 Y force, node 72, N
        216   -1.052E+03                                 F               0         Blade 1 Z force, node 72, N
        217    8.390E+03                                 F               0         Blade 1 X force, node 73, N