
Linearized model: Predictions were generated on 13-Feb-2024 at 11:29:37 using OpenFAST, compiled as a 64-bit application using single precision at commit v3.5.1
 linked with  NWTC Subroutine Library; ElastoDyn; InflowWind; AeroDyn; ServoDyn; HydroDyn; MAP++ (<1.20.10>, <Oct-20-2023>)

Description from the FAST input file: CCT-9 Campign 4 model. Input files to be run with OpenFAST 3.5.0. GitHub branch from Lu Wang (https://github.com/luwang00/openfast/tree/dev) compiled on March 7, 2023.

Simulation information:
   Simulation time:                  1214.3750 s
   Rotor Speed:                         0.7917 rad/s
   Azimuth:                             2.8102 rad
   Wind Speed:                         16.0000 m/s
   Number of continuous states:         0
   Number of discrete states:           0
   Number of constraint states:         0
   Number of inputs:                 1746
   Number of outputs:                   4
   Jacobians included in this file?    No

Order of inputs:
     Column   Operating Point                                                   Rotating Frame? Derivative Order Description
   ---------- ---------------                                                   --------------- ---------------- -----------
          1     1.07031326294E+001                                                     F               0         Tower X translation displacement, node 1, m
          2    -1.55809187889E+000                                                     F               0         Tower Y translation displacement, node 1, m
          3    -2.73077309132E-001                                                     F               0         Tower Z translation displacement, node 1, m
          4     1.20892448425E+001                                                     F               0         Tower X translation displacement, node 2, m
          5    -2.19113039970E+000                                                     F               0         Tower Y translation displacement, node 2, m
          6    -3.67410749197E-001                                                     F               0         Tower Z translation displacement, node 2, m
          7     1.34753589630E+001                                                     F               0         Tower X translation displacement, node 3, m
          8    -2.82416915894E+000                                                     F               0         Tower Y translation displacement, node 3, m
          9    -4.61742073298E-001                                                     F               0         Tower Z translation displacement, node 3, m
         10     1.48614721298E+001                                                     F               0         Tower X translation displacement, node 4, m
         11    -3.45720791817E+000                                                     F               0         Tower Y translation displacement, node 4, m
         12    -5.56073606014E-001                                                     F               0         Tower Z translation displacement, node 4, m
         13     1.62475852966E+001                                                     F               0         Tower X translation displacement, node 5, m
         14    -4.09024667740E+000                                                     F               0         Tower Y translation displacement, node 5, m
         15    -6.50402367115E-001                                                     F               0         Tower Z translation displacement, node 5, m
         16     1.76336975098E+001                                                     F               0         Tower X translation displacement, node 6, m
         17    -4.72328519821E+000                                                     F               0         Tower Y translation displacement, node 6, m
         18    -7.44741618633E-001                                                     F               0         Tower Z translation displacement, node 6, m
         19     1.90198116302E+001                                                     F               0         Tower X translation displacement, node 7, m
         20    -5.35632419586E+000                                                     F               0         Tower Y translation displacement, node 7, m
         21    -8.39066922665E-001                                                     F               0         Tower Z translation displacement, node 7, m
         22     2.04059238434E+001                                                     F               0         Tower X translation displacement, node 8, m
         23    -5.98936223984E+000                                                     F               0         Tower Y translation displacement, node 8, m
         24    -9.33404326439E-001                                                     F               0         Tower Z translation displacement, node 8, m
         25     2.17920398712E+001                                                     F               0         Tower X translation displacement, node 9, m
         26    -6.62240171432E+000                                                     F               0         Tower Y translation displacement, node 9, m
         27    -1.02773272991E+000                                                     F               0         Tower Z translation displacement, node 9, m
         28     2.31781520844E+001                                                     F               0         Tower X translation displacement, node 10, m
         29    -7.25544023514E+000                                                     F               0         Tower Y translation displacement, node 10, m
         30    -1.12206709385E+000                                                     F               0         Tower Z translation displacement, node 10, m
         31     2.45642642975E+001                                                     F               0         Tower X translation displacement, node 11, m
         32    -7.88847875595E+000                                                     F               0         Tower Y translation displacement, node 11, m
         33    -1.21639835835E+000                                                     F               0         Tower Z translation displacement, node 11, m
         34     9.93683874607E-001,   3.40517028235E-003,  -1.12163774669E-001         F               0         Tower X orientation angle, node 1, rad
         35     2.36781430431E-003,   9.98680710793E-001,   5.12958541512E-002         F               0         Tower Y orientation angle, node 1, rad
         36     1.12190470099E-001,  -5.12374490499E-002,   9.92364883423E-001         F               0         Tower Z orientation angle, node 1, rad
         37     9.93683874607E-001,   3.40517028235E-003,  -1.12163774669E-001         F               0         Tower X orientation angle, node 2, rad
         38     2.36781430431E-003,   9.98680710793E-001,   5.12958541512E-002         F               0         Tower Y orientation angle, node 2, rad
         39     1.12190470099E-001,  -5.12374490499E-002,   9.92364883423E-001         F               0         Tower Z orientation angle, node 2, rad
         40     9.93683874607E-001,   3.40517028235E-003,  -1.12163774669E-001         F               0         Tower X orientation angle, node 3, rad
         41     2.36781430431E-003,   9.98680710793E-001,   5.12958541512E-002         F               0         Tower Y orientation angle, node 3, rad
         42     1.12190470099E-001,  -5.12374490499E-002,   9.92364883423E-001         F               0         Tower Z orientation angle, node 3, rad
         43     9.93683874607E-001,   3.40517028235E-003,  -1.12163774669E-001         F               0         Tower X orientation angle, node 4, rad
         44     2.36781430431E-003,   9.98680710793E-001,   5.12958541512E-002         F               0         Tower Y orientation angle, node 4, rad
         45     1.12190470099E-001,  -5.12374490499E-002,   9.92364883423E-001         F               0         Tower Z orientation angle, node 4, rad
         46     9.93683874607E-001,   3.40517028235E-003,  -1.12163774669E-001         F               0         Tower X orientation angle, node 5, rad
         47     2.36781430431E-003,   9.98680710793E-001,   5.12958541512E-002         F               0         Tower Y orientation angle, node 5, rad
         48     1.12190470099E-001,  -5.12374490499E-002,   9.92364883423E-001         F               0         Tower Z orientation angle, node 5, rad
         49     9.93683874607E-001,   3.40517028235E-003,  -1.12163774669E-001         F               0         Tower X orientation angle, node 6, rad
         50     2.36781430431E-003,   9.98680710793E-001,   5.12958541512E-002         F               0         Tower Y orientation angle, node 6, rad
         51     1.12190470099E-001,  -5.12374490499E-002,   9.92364883423E-001         F               0         Tower Z orientation angle, node 6, rad
         52     9.93683874607E-001,   3.40517028235E-003,  -1.12163774669E-001         F               0         Tower X orientation angle, node 7, rad
         53     2.36781430431E-003,   9.98680710793E-001,   5.12958541512E-002         F               0         Tower Y orientation angle, node 7, rad
         54     1.12190470099E-001,  -5.12374490499E-002,   9.92364883423E-001         F               0         Tower Z orientation angle, node 7, rad
         55     9.93683874607E-001,   3.40517004952E-003,  -1.12163774669E-001         F               0         Tower X orientation angle, node 8, rad
         56     2.36781430431E-003,   9.98680710793E-001,   5.12958541512E-002         F               0         Tower Y orientation angle, node 8, rad
         57     1.12190470099E-001,  -5.12374453247E-002,   9.92364883423E-001         F               0         Tower Z orientation angle, node 8, rad
         58     9.93683874607E-001,   3.40517051518E-003,  -1.12163782120E-001         F               0         Tower X orientation angle, node 9, rad
         59     2.36781453714E-003,   9.98680710793E-001,   5.12958578765E-002         F               0         Tower Y orientation angle, node 9, rad
         60     1.12190470099E-001,  -5.12374490499E-002,   9.92364883423E-001         F               0         Tower Z orientation angle, node 9, rad
         61     9.93683874607E-001,   3.40517028235E-003,  -1.12163774669E-001         F               0         Tower X orientation angle, node 10, rad
         62     2.36781430431E-003,   9.98680710793E-001,   5.12958541512E-002         F               0         Tower Y orientation angle, node 10, rad
         63     1.12190470099E-001,  -5.12374490499E-002,   9.92364883423E-001         F               0         Tower Z orientation angle, node 10, rad
         64     9.93683874607E-001,   3.40517028235E-003,  -1.12163774669E-001         F               0         Tower X orientation angle, node 11, rad
         65     2.36781430431E-003,   9.98680710793E-001,   5.12958541512E-002         F               0         Tower Y orientation angle, node 11, rad
         66     1.12190470099E-001,  -5.12374490499E-002,   9.92364883423E-001         F               0         Tower Z orientation angle, node 11, rad
         67     2.39369546762E-004                                                     F               0         Tower X translation velocity, node 1, m/s
         68    -5.33934042323E-004                                                     F               0         Tower Y translation velocity, node 1, m/s
         69    -4.03306027874E-003                                                     F               0         Tower Z translation velocity, node 1, m/s
         70     3.32760799211E-004                                                     F               0         Tower X translation velocity, node 2, m/s
         71    -8.16638756078E-004                                                     F               0         Tower Y translation velocity, node 2, m/s
         72    -4.05821437016E-003                                                     F               0         Tower Z translation velocity, node 2, m/s
         73     4.26152080763E-004                                                     F               0         Tower X translation velocity, node 3, m/s
         74    -1.09934364446E-003                                                     F               0         Tower Y translation velocity, node 3, m/s
         75    -4.08336939290E-003                                                     F               0         Tower Z translation velocity, node 3, m/s
         76     5.19543304108E-004                                                     F               0         Tower X translation velocity, node 4, m/s
         77    -1.38204847462E-003                                                     F               0         Tower Y translation velocity, node 4, m/s
         78    -4.10852394998E-003                                                     F               0         Tower Z translation velocity, node 4, m/s
         79     6.12934643868E-004                                                     F               0         Tower X translation velocity, node 5, m/s
         80    -1.66475330479E-003                                                     F               0         Tower Y translation velocity, node 5, m/s
         81    -4.13367897272E-003                                                     F               0         Tower Z translation velocity, node 5, m/s
         82     7.06325867213E-004                                                     F               0         Tower X translation velocity, node 6, m/s
         83    -1.94745801855E-003                                                     F               0         Tower Y translation velocity, node 6, m/s
         84    -4.15883399546E-003                                                     F               0         Tower Z translation velocity, node 6, m/s
         85     7.99717206974E-004                                                     F               0         Tower X translation velocity, node 7, m/s
         86    -2.23016319796E-003                                                     F               0         Tower Y translation velocity, node 7, m/s
         87    -4.18398855254E-003                                                     F               0         Tower Z translation velocity, node 7, m/s
         88     8.93108430319E-004                                                     F               0         Tower X translation velocity, node 8, m/s
         89    -2.51286756247E-003                                                     F               0         Tower Y translation velocity, node 8, m/s
         90    -4.20914357528E-003                                                     F               0         Tower Z translation velocity, node 8, m/s
         91     9.86499711871E-004                                                     F               0         Tower X translation velocity, node 9, m/s
         92    -2.79557262547E-003                                                     F               0         Tower Y translation velocity, node 9, m/s
         93    -4.23429813236E-003                                                     F               0         Tower Z translation velocity, node 9, m/s
         94     1.07989099342E-003                                                     F               0         Tower X translation velocity, node 10, m/s
         95    -3.07827745564E-003                                                     F               0         Tower Y translation velocity, node 10, m/s
         96    -4.25945268944E-003                                                     F               0         Tower Z translation velocity, node 10, m/s
         97     1.17328239139E-003                                                     F               0         Tower X translation velocity, node 11, m/s
         98    -3.36098228581E-003                                                     F               0         Tower Y translation velocity, node 11, m/s
         99    -4.28460724652E-003                                                     F               0         Tower Z translation velocity, node 11, m/s
        100     2.55131969452E+001                                                     F               0         Hub X translation displacement, node 1, m
        101    -8.32747936249E+000                                                     F               0         Hub Y translation displacement, node 1, m
        102    -6.49045780301E-002                                                     F               0         Hub Z translation displacement, node 1, m
        103     9.76513326168E-001,   8.74228775501E-003,  -2.15279713273E-001         F               0         Hub X orientation angle, node 1, rad
        104     6.78601264954E-002,  -9.60803210735E-001,   2.68797725439E-001         F               0         Hub Y orientation angle, node 1, rad
        105    -2.04491525888E-001,  -2.77093470097E-001,  -9.38830375671E-001         F               0         Hub Z orientation angle, node 1, rad
        106     7.73148953915E-001                                                     F               0         Hub X rotation velocity, node 1, rad/s
        107     6.92878244445E-003                                                     F               0         Hub Y rotation velocity, node 1, rad/s
        108    -1.70435860753E-001                                                     F               0         Hub Z rotation velocity, node 1, rad/s
        109     9.57253158092E-001,   1.43831774592E-001,  -2.50955879688E-001         F               0         Blade root 1 X orientation angle, node 1, rad
        110     2.04571872950E-001,  -9.50016677380E-001,   2.35836207867E-001         F               0         Blade root 1 Y orientation angle, node 1, rad
        111    -2.04491525888E-001,  -2.77093470097E-001,  -9.38830375671E-001         F               0         Blade root 1 Z orientation angle, node 1, rad
        112     9.96489763260E-001,  -2.51712501049E-002,  -7.98407047987E-002         F               0         Blade root 2 X orientation angle, node 1, rad
        113    -7.15392604470E-002,   2.39270135760E-001,  -9.68313992023E-001         F               0         Blade root 2 Y orientation angle, node 1, rad
        114     4.34771701694E-002,   9.70626711845E-001,   2.36629515886E-001         F               0         Blade root 2 Z orientation angle, node 1, rad
        115     9.46658432484E-001,  -9.26945209503E-002,  -3.08618724346E-001         F               0         Blade root 3 X orientation angle, node 1, rad
        116     2.79127508402E-001,   7.14436411858E-001,   6.41613960266E-001         F               0         Blade root 3 Y orientation angle, node 1, rad
        117     1.61014363170E-001,  -6.93533241749E-001,   7.02200829983E-001         F               0         Blade root 3 Z orientation angle, node 1, rad
        118     2.38012256622E+001                                                     F               0         Blade 1 X translation displacement, node 1, m
        119    -9.86257743835E+000                                                     F               0         Blade 1 Y translation displacement, node 1, m
        120    -1.07756834030E+001                                                     F               0         Blade 1 Z translation displacement, node 1, m
        121     2.33887138367E+001                                                     F               0         Blade 1 X translation displacement, node 2, m
        122    -1.02324705124E+001                                                     F               0         Blade 1 Y translation displacement, node 2, m
        123    -1.33565244675E+001                                                     F               0         Blade 1 Z translation displacement, node 2, m
        124     1.77792568207E+001                                                     F               0         Blade 1 X translation displacement, node 3, m
        125    -1.52623844147E+001                                                     F               0         Blade 1 Y translation displacement, node 3, m
        126    -4.84515190125E+001                                                     F               0         Blade 1 Z translation displacement, node 3, m
        127     1.65841293335E+001                                                     F               0         Blade 1 X translation displacement, node 4, m
        128    -1.63340358734E+001                                                     F               0         Blade 1 Y translation displacement, node 4, m
        129    -5.59287223816E+001                                                     F               0         Blade 1 Z translation displacement, node 4, m
        130     1.53887739182E+001                                                     F               0         Blade 1 X translation displacement, node 5, m
        131    -1.74058933258E+001                                                     F               0         Blade 1 Y translation displacement, node 5, m
        132    -6.34073333740E+001                                                     F               0         Blade 1 Z translation displacement, node 5, m
        133     1.41936416626E+001                                                     F               0         Blade 1 X translation displacement, node 6, m
        134    -1.84775505066E+001                                                     F               0         Blade 1 Y translation displacement, node 6, m
        135    -7.08845672607E+001                                                     F               0         Blade 1 Z translation displacement, node 6, m
        136     1.29985046387E+001                                                     F               0         Blade 1 X translation displacement, node 7, m
        137    -1.95492115021E+001                                                     F               0         Blade 1 Y translation displacement, node 7, m
        138    -7.83618087769E+001                                                     F               0         Blade 1 Z translation displacement, node 7, m
        139     1.18031539917E+001                                                     F               0         Blade 1 X translation displacement, node 8, m
        140    -2.06210632324E+001                                                     F               0         Blade 1 Y translation displacement, node 8, m
        141    -8.58404083252E+001                                                     F               0         Blade 1 Z translation displacement, node 8, m
        142     1.06080169678E+001                                                     F               0         Blade 1 X translation displacement, node 9, m
        143    -2.16927242279E+001                                                     F               0         Blade 1 Y translation displacement, node 9, m
        144    -9.33176498413E+001                                                     F               0         Blade 1 Z translation displacement, node 9, m
        145     9.41288471222E+000                                                     F               0         Blade 1 X translation displacement, node 10, m
        146    -2.27643814087E+001                                                     F               0         Blade 1 Y translation displacement, node 10, m
        147    -1.00794891357E+002                                                     F               0         Blade 1 Z translation displacement, node 10, m
        148     8.21774673462E+000                                                     F               0         Blade 1 X translation displacement, node 11, m
        149    -2.38360424042E+001                                                     F               0         Blade 1 Y translation displacement, node 11, m
        150    -1.08272132874E+002                                                     F               0         Blade 1 Z translation displacement, node 11, m
        151     7.02240133286E+000                                                     F               0         Blade 1 X translation displacement, node 12, m
        152    -2.49078903198E+001                                                     F               0         Blade 1 Y translation displacement, node 12, m
        153    -1.15750701904E+002                                                     F               0         Blade 1 Z translation displacement, node 12, m
        154     5.82726383209E+000                                                     F               0         Blade 1 X translation displacement, node 13, m
        155    -2.59795532227E+001                                                     F               0         Blade 1 Y translation displacement, node 13, m
        156    -1.23227951050E+002                                                     F               0         Blade 1 Z translation displacement, node 13, m
        157     4.63213109970E+000                                                     F               0         Blade 1 X translation displacement, node 14, m
        158    -2.70512084961E+001                                                     F               0         Blade 1 Y translation displacement, node 14, m
        159    -1.30705184937E+002                                                     F               0         Blade 1 Z translation displacement, node 14, m
        160     3.43677735329E+000                                                     F               0         Blade 1 X translation displacement, node 15, m
        161    -2.81230640411E+001                                                     F               0         Blade 1 Y translation displacement, node 15, m
        162    -1.38183792114E+002                                                     F               0         Blade 1 Z translation displacement, node 15, m
        163     2.24164414406E+000                                                     F               0         Blade 1 X translation displacement, node 16, m
        164    -2.91947231293E+001                                                     F               0         Blade 1 Y translation displacement, node 16, m
        165    -1.45661026001E+002                                                     F               0         Blade 1 Z translation displacement, node 16, m
        166     1.04650628567E+000                                                     F               0         Blade 1 X translation displacement, node 17, m
        167    -3.02663841248E+001                                                     F               0         Blade 1 Y translation displacement, node 17, m
        168    -1.53138275146E+002                                                     F               0         Blade 1 Z translation displacement, node 17, m
        169    -1.48627221584E-001                                                     F               0         Blade 1 X translation displacement, node 18, m
        170    -3.13380432129E+001                                                     F               0         Blade 1 Y translation displacement, node 18, m
        171    -1.60615524292E+002                                                     F               0         Blade 1 Z translation displacement, node 18, m
        172    -1.34397387505E+000                                                     F               0         Blade 1 X translation displacement, node 19, m
        173    -3.24098892212E+001                                                     F               0         Blade 1 Y translation displacement, node 19, m
        174    -1.68094085693E+002                                                     F               0         Blade 1 Z translation displacement, node 19, m
        175    -2.53911185265E+000                                                     F               0         Blade 1 X translation displacement, node 20, m
        176    -3.34815521240E+001                                                     F               0         Blade 1 Y translation displacement, node 20, m
        177    -1.75571334839E+002                                                     F               0         Blade 1 Z translation displacement, node 20, m
        178    -3.73424530029E+000                                                     F               0         Blade 1 X translation displacement, node 21, m
        179    -3.45532112122E+001                                                     F               0         Blade 1 Y translation displacement, node 21, m
        180    -1.83048568726E+002                                                     F               0         Blade 1 Z translation displacement, node 21, m
        181    -4.92959690094E+000                                                     F               0         Blade 1 X translation displacement, node 22, m
        182    -3.56250648499E+001                                                     F               0         Blade 1 Y translation displacement, node 22, m
        183    -1.90527160645E+002                                                     F               0         Blade 1 Z translation displacement, node 22, m