
Linearized model: Predictions were generated on 13-Feb-2024 at 11:29:37 using OpenFAST, compiled as a 64-bit application using single precision at commit v3.5.1
 linked with  NWTC Subroutine Library; ElastoDyn; InflowWind; AeroDyn; ServoDyn; HydroDyn; MAP++ (<1.20.10>, <Oct-20-2023>)

Description from the FAST input file: CCT-9 Campign 4 model. Input files to be run with OpenFAST 3.5.0. GitHub branch from Lu Wang (https://github.com/luwang00/openfast/tree/dev) compiled on March 7, 2023.

Simulation information:
   Simulation time:                  1214.8000 s
   Rotor Speed:                         0.7916 rad/s
   Azimuth:                             3.1467 rad
   Wind Speed:                         16.0000 m/s
   Number of continuous states:        14
   Number of discrete states:           0
   Number of constraint states:         0
   Number of inputs:                 1890
   Number of outputs:                  25
   Jacobians included in this file?    No

Order of continuous states:
   Row/Column Operating Point                                                   Rotating Frame? Derivative Order Description
   ---------- ---------------                                                   --------------- ---------------- -----------
          1     8.64556789398E+000                                                     F               2         Platform horizontal surge translation DOF (internal DOF index = DOF_Sg), m
          2    -6.18452429771E-001                                                     F               2         Platform horizontal sway translation DOF (internal DOF index = DOF_Sw), m
          3    -1.34923636913E-001                                                     F               2         Platform vertical heave translation DOF (internal DOF index = DOF_Hv), m
          4     5.16724176705E-002                                                     F               2         Platform roll tilt rotation DOF (internal DOF index = DOF_R), rad
          5     1.13040857017E-001                                                     F               2         Platform pitch tilt rotation DOF (internal DOF index = DOF_P), rad
          6     5.25459472556E-004                                                     F               2         Platform yaw rotation DOF (internal DOF index = DOF_Y), rad
          7     1.57586419582E+000                                                     F               2         Variable speed generator DOF (internal DOF index = DOF_GeAz), rad
          8    -9.80728727882E-005                                                     F               2         First time derivative of Platform horizontal surge translation DOF (internal DOF index = DOF_Sg), m/s
          9    -1.46493504872E-004                                                     F               2         First time derivative of Platform horizontal sway translation DOF (internal DOF index = DOF_Sw), m/s
         10    -4.80087753385E-003                                                     F               2         First time derivative of Platform vertical heave translation DOF (internal DOF index = DOF_Hv), m/s
         11     2.94166402455E-005                                                     F               2         First time derivative of Platform roll tilt rotation DOF (internal DOF index = DOF_R), rad/s
         12    -5.93536196902E-006                                                     F               2         First time derivative of Platform pitch tilt rotation DOF (internal DOF index = DOF_P), rad/s
         13     6.51436539556E-006                                                     F               2         First time derivative of Platform yaw rotation DOF (internal DOF index = DOF_Y), rad/s
         14     7.91640102863E-001                                                     F               2         First time derivative of Variable speed generator DOF (internal DOF index = DOF_GeAz), rad/s

Order of continuous state derivatives:
   Row/Column Operating Point                                                   Rotating Frame? Derivative Order Description
   ---------- ---------------                                                   --------------- ---------------- -----------
          1    -9.80728727882E-005                                                     F               2         First time derivative of Platform horizontal surge translation DOF (internal DOF index = DOF_Sg), m/s
          2    -1.46493504872E-004                                                     F               2         First time derivative of Platform horizontal sway translation DOF (internal DOF index = DOF_Sw), m/s
          3    -4.80087753385E-003                                                     F               2         First time derivative of Platform vertical heave translation DOF (internal DOF index = DOF_Hv), m/s
          4     2.94166402455E-005                                                     F               2         First time derivative of Platform roll tilt rotation DOF (internal DOF index = DOF_R), rad/s
          5    -5.93536196902E-006                                                     F               2         First time derivative of Platform pitch tilt rotation DOF (internal DOF index = DOF_P), rad/s
          6     6.51436539556E-006                                                     F               2         First time derivative of Platform yaw rotation DOF (internal DOF index = DOF_Y), rad/s
          7     7.91640102863E-001                                                     F               2         First time derivative of Variable speed generator DOF (internal DOF index = DOF_GeAz), rad/s
          8    -7.13343033567E-004                                                     F               2         First time derivative of First time derivative of Platform horizontal surge translation DOF (internal DOF index = DOF_Sg), m/s/s
          9    -7.23611883586E-005                                                     F               2         First time derivative of First time derivative of Platform horizontal sway translation DOF (internal DOF index = DOF_Sw), m/s/s
         10    -1.71540363226E-003                                                     F               2         First time derivative of First time derivative of Platform vertical heave translation DOF (internal DOF index = DOF_Hv), m/s/s
         11     1.19734913824E-005                                                     F               2         First time derivative of First time derivative of Platform roll tilt rotation DOF (internal DOF index = DOF_R), rad/s/s
         12    -3.98430602218E-005                                                     F               2         First time derivative of First time derivative of Platform pitch tilt rotation DOF (internal DOF index = DOF_P), rad/s/s
         13    -4.09968151871E-006                                                     F               2         First time derivative of First time derivative of Platform yaw rotation DOF (internal DOF index = DOF_Y), rad/s/s
         14    -3.59627330909E-004                                                     F               2         First time derivative of First time derivative of Variable speed generator DOF (internal DOF index = DOF_GeAz), rad/s/s

Order of inputs:
     Column   Operating Point                                                   Rotating Frame? Derivative Order Description
   ---------- ---------------                                                   --------------- ---------------- -----------
          1     1.63379272461E+002                                                     F               0         Blade 1 X force, node 1, N
          2    -8.28605499268E+001                                                     F               0         Blade 1 Y force, node 1, N
          3    -4.08334579468E+001                                                     F               0         Blade 1 Z force, node 1, N
          4     6.93853210449E+002                                                     F               0         Blade 1 X force, node 2, N
          5    -1.29540634155E+002                                                     F               0         Blade 1 Y force, node 2, N
          6    -1.60717590332E+002                                                     F               0         Blade 1 Z force, node 2, N
          7     8.94005737305E+002                                                     F               0         Blade 1 X force, node 3, N
          8     7.31770477295E+001                                                     F               0         Blade 1 Y force, node 3, N
          9    -1.93369308472E+002                                                     F               0         Blade 1 Z force, node 3, N
         10     1.16782812500E+003                                                     F               0         Blade 1 X force, node 4, N
         11     2.62337768555E+002                                                     F               0         Blade 1 Y force, node 4, N
         12    -2.43073974609E+002                                                     F               0         Blade 1 Z force, node 4, N
         13     1.44166137695E+003                                                     F               0         Blade 1 X force, node 5, N
         14     4.51502349854E+002                                                     F               0         Blade 1 Y force, node 5, N
         15    -2.92780822754E+002                                                     F               0         Blade 1 Z force, node 5, N
         16     1.71548681641E+003                                                     F               0         Blade 1 X force, node 6, N
         17     6.40665161133E+002                                                     F               0         Blade 1 Y force, node 6, N
         18    -3.42486022949E+002                                                     F               0         Blade 1 Z force, node 6, N
         19     1.98929870605E+003                                                     F               0         Blade 1 X force, node 7, N
         20     8.29822448730E+002                                                     F               0         Blade 1 Y force, node 7, N
         21    -3.92188629150E+002                                                     F               0         Blade 1 Z force, node 7, N
         22     2.26312133789E+003                                                     F               0         Blade 1 X force, node 8, N
         23     1.01898315430E+003                                                     F               0         Blade 1 Y force, node 8, N
         24    -4.41893249512E+002                                                     F               0         Blade 1 Z force, node 8, N
         25     2.53694384766E+003                                                     F               0         Blade 1 X force, node 9, N
         26     1.20814379883E+003                                                     F               0         Blade 1 Y force, node 9, N
         27    -4.91597961426E+002                                                     F               0         Blade 1 Z force, node 9, N
         28     2.81076611328E+003                                                     F               0         Blade 1 X force, node 10, N
         29     1.39730456543E+003                                                     F               0         Blade 1 Y force, node 10, N
         30    -5.41302612305E+002                                                     F               0         Blade 1 Z force, node 10, N
         31     3.08458862305E+003                                                     F               0         Blade 1 X force, node 11, N
         32     1.58646520996E+003                                                     F               0         Blade 1 Y force, node 11, N
         33    -5.91007263184E+002                                                     F               0         Blade 1 Z force, node 11, N
         34     3.35843432617E+003                                                     F               0         Blade 1 X force, node 12, N
         35     1.77563879395E+003                                                     F               0         Blade 1 Y force, node 12, N
         36    -6.40716491699E+002                                                     F               0         Blade 1 Z force, node 12, N
         37     3.63226000977E+003                                                     F               0         Blade 1 X force, node 13, N
         38     1.96480151367E+003                                                     F               0         Blade 1 Y force, node 13, N
         39    -6.90421630859E+002                                                     F               0         Blade 1 Z force, node 13, N
         40     3.90605932617E+003                                                     F               0         Blade 1 X force, node 14, N
         41     2.15394995117E+003                                                     F               0         Blade 1 Y force, node 14, N
         42    -7.40121887207E+002                                                     F               0         Blade 1 Z force, node 14, N
         43     4.17990966797E+003                                                     F               0         Blade 1 X force, node 15, N
         44     2.34312646484E+003                                                     F               0         Blade 1 Y force, node 15, N
         45    -7.89831970215E+002                                                     F               0         Blade 1 Z force, node 15, N
         46     4.45370312500E+003                                                     F               0         Blade 1 X force, node 16, N
         47     2.53227075195E+003                                                     F               0         Blade 1 Y force, node 16, N
         48    -8.39531127930E+002                                                     F               0         Blade 1 Z force, node 16, N
         49     5.47635400391E+003                                                     F               0         Blade 1 X force, node 17, N
         50     3.14478271484E+003                                                     F               0         Blade 1 Y force, node 17, N
         51    -1.03052905273E+003                                                     F               0         Blade 1 Z force, node 17, N
         52     4.13900048828E+003                                                     F               0         Blade 1 X force, node 18, N
         53     2.32802490234E+003                                                     F               0         Blade 1 Y force, node 18, N
         54    -7.81654479980E+002                                                     F               0         Blade 1 Z force, node 18, N
         55     5.01837744141E+003                                                     F               0         Blade 1 X force, node 19, N
         56     2.73950708008E+003                                                     F               0         Blade 1 Y force, node 19, N
         57    -9.52472778320E+002                                                     F               0         Blade 1 Z force, node 19, N
         58     4.23080859375E+003                                                     F               0         Blade 1 X force, node 20, N
         59     2.24332910156E+003                                                     F               0         Blade 1 Y force, node 20, N
         60    -8.06777770996E+002                                                     F               0         Blade 1 Z force, node 20, N
         61     6.16729003906E+003                                                     F               0         Blade 1 X force, node 21, N
         62     3.16178881836E+003                                                     F               0         Blade 1 Y force, node 21, N
         63    -1.18223400879E+003                                                     F               0         Blade 1 Z force, node 21, N
         64     5.37235693359E+003                                                     F               0         Blade 1 X force, node 22, N
         65     2.66476831055E+003                                                     F               0         Blade 1 Y force, node 22, N
         66    -1.03495959473E+003                                                     F               0         Blade 1 Z force, node 22, N
         67     5.45368847656E+003                                                     F               0         Blade 1 X force, node 23, N
         68     2.62409692383E+003                                                     F               0         Blade 1 Y force, node 23, N
         69    -1.05525378418E+003                                                     F               0         Blade 1 Z force, node 23, N
         70     5.62948486328E+003                                                     F               0         Blade 1 X force, node 24, N
         71     2.62844360352E+003                                                     F               0         Blade 1 Y force, node 24, N
         72    -1.09385107422E+003                                                     F               0         Blade 1 Z force, node 24, N
         73     5.69764355469E+003                                                     F               0         Blade 1 X force, node 25, N
         74     2.58385717773E+003                                                     F               0         Blade 1 Y force, node 25, N
         75    -1.11145825195E+003                                                     F               0         Blade 1 Z force, node 25, N
         76     5.79562548828E+003                                                     F               0         Blade 1 X force, node 26, N
         77     2.55377465820E+003                                                     F               0         Blade 1 Y force, node 26, N
         78    -1.13482702637E+003                                                     F               0         Blade 1 Z force, node 26, N
         79     6.85818554688E+003                                                     F               0         Blade 1 X force, node 27, N
         80     2.93175903320E+003                                                     F               0         Blade 1 Y force, node 27, N
         81    -1.34803588867E+003                                                     F               0         Blade 1 Z force, node 27, N
         82     5.01832373047E+003                                                     F               0         Blade 1 X force, node 28, N
         83     2.08377246094E+003                                                     F               0         Blade 1 Y force, node 28, N
         84    -9.89905761719E+002                                                     F               0         Blade 1 Z force, node 28, N
         85     6.06995117188E+003                                                     F               0         Blade 1 X force, node 29, N
         86     2.45958813477E+003                                                     F               0         Blade 1 Y force, node 29, N
         87    -1.20082287598E+003                                                     F               0         Blade 1 Z force, node 29, N
         88     5.10834228516E+003                                                     F               0         Blade 1 X force, node 30, N
         89     2.02023596191E+003                                                     F               0         Blade 1 Y force, node 30, N
         90    -1.01342535400E+003                                                     F               0         Blade 1 Z force, node 30, N
         91     7.28128564453E+003                                                     F               0         Blade 1 X force, node 31, N
         92     2.80004882812E+003                                                     F               0         Blade 1 Y force, node 31, N
         93    -1.44904968262E+003                                                     F               0         Blade 1 Z force, node 31, N
         94     6.29811425781E+003                                                     F               0         Blade 1 X force, node 32, N
         95     2.35698095703E+003                                                     F               0         Blade 1 Y force, node 32, N
         96    -1.25709924316E+003                                                     F               0         Blade 1 Z force, node 32, N
         97     6.36063232422E+003                                                     F               0         Blade 1 X force, node 33, N
         98     2.32027880859E+003                                                     F               0         Blade 1 Y force, node 33, N
         99    -1.27300976562E+003                                                     F               0         Blade 1 Z force, node 33, N
        100     6.42166259766E+003                                                     F               0         Blade 1 X force, node 34, N
        101     2.28365380859E+003                                                     F               0         Blade 1 Y force, node 34, N
        102    -1.28858691406E+003                                                     F               0         Blade 1 Z force, node 34, N
        103     6.47020458984E+003                                                     F               0         Blade 1 X force, node 35, N
        104     2.24496313477E+003                                                     F               0         Blade 1 Y force, node 35, N
        105    -1.30152258301E+003                                                     F               0         Blade 1 Z force, node 35, N
        106     6.51390478516E+003                                                     F               0         Blade 1 X force, node 36, N
        107     2.20515722656E+003                                                     F               0         Blade 1 Y force, node 36, N
        108    -1.31345214844E+003                                                     F               0         Blade 1 Z force, node 36, N
        109     7.66504394531E+003                                                     F               0         Blade 1 X force, node 37, N
        110     2.52731445312E+003                                                     F               0         Blade 1 Y force, node 37, N
        111    -1.54942272949E+003                                                     F               0         Blade 1 Z force, node 37, N
        112     5.48887744141E+003                                                     F               0         Blade 1 X force, node 38, N
        113     1.76518017578E+003                                                     F               0         Blade 1 Y force, node 38, N
        114    -1.11207629395E+003                                                     F               0         Blade 1 Z force, node 38, N
        115     6.63013330078E+003                                                     F               0         Blade 1 X force, node 39, N
        116     2.08826635742E+003                                                     F               0         Blade 1 Y force, node 39, N
        117    -1.34580969238E+003                                                     F               0         Blade 1 Z force, node 39, N
        118     5.57346093750E+003                                                     F               0         Blade 1 X force, node 40, N
        119     1.71871423340E+003                                                     F               0         Blade 1 Y force, node 40, N
        120    -1.13342016602E+003                                                     F               0         Blade 1 Z force, node 40, N
        121     7.77968994141E+003                                                     F               0         Blade 1 X force, node 41, N
        122     2.34069335938E+003                                                     F               0         Blade 1 Y force, node 41, N
        123    -1.58541235352E+003                                                     F               0         Blade 1 Z force, node 41, N
        124     6.70068017578E+003                                                     F               0         Blade 1 X force, node 42, N
        125     1.96755200195E+003                                                     F               0         Blade 1 Y force, node 42, N
        126    -1.36829187012E+003                                                     F               0         Blade 1 Z force, node 42, N
        127     6.71090820312E+003                                                     F               0         Blade 1 X force, node 43, N
        128     1.92516833496E+003                                                     F               0         Blade 1 Y force, node 43, N
        129    -1.37297216797E+003                                                     F               0         Blade 1 Z force, node 43, N
        130     6.75551416016E+003                                                     F               0         Blade 1 X force, node 44, N
        131     1.89295056152E+003                                                     F               0         Blade 1 Y force, node 44, N
        132    -1.38466870117E+003                                                     F               0         Blade 1 Z force, node 44, N
        133     6.68984033203E+003                                                     F               0         Blade 1 X force, node 45, N
        134     1.83257995605E+003                                                     F               0         Blade 1 Y force, node 45, N
        135    -1.37360375977E+003                                                     F               0         Blade 1 Z force, node 45, N
        136     6.72927246094E+003                                                     F               0         Blade 1 X force, node 46, N
        137     1.80208056641E+003                                                     F               0         Blade 1 Y force, node 46, N
        138    -1.38405883789E+003                                                     F               0         Blade 1 Z force, node 46, N
        139     7.90444677734E+003                                                     F               0         Blade 1 X force, node 47, N
        140     2.06516552734E+003                                                     F               0         Blade 1 Y force, node 47, N
        141    -1.62871325684E+003                                                     F               0         Blade 1 Z force, node 47, N
        142     5.55654003906E+003                                                     F               0         Blade 1 X force, node 48, N
        143     1.41783093262E+003                                                     F               0         Blade 1 Y force, node 48, N
        144    -1.14686254883E+003                                                     F               0         Blade 1 Z force, node 48, N
        145     6.71854296875E+003                                                     F               0         Blade 1 X force, node 49, N
        146     1.68067480469E+003                                                     F               0         Blade 1 Y force, node 49, N
        147    -1.38862048340E+003                                                     F               0         Blade 1 Z force, node 49, N
        148     5.65289453125E+003                                                     F               0         Blade 1 X force, node 50, N
        149     1.38535107422E+003                                                     F               0         Blade 1 Y force, node 50, N
        150    -1.17000878906E+003                                                     F               0         Blade 1 Z force, node 50, N
        151     7.75152050781E+003                                                     F               0         Blade 1 X force, node 51, N
        152     1.85458044434E+003                                                     F               0         Blade 1 Y force, node 51, N
        153    -1.60694641113E+003                                                     F               0         Blade 1 Z force, node 51, N
        154     6.67761132812E+003                                                     F               0         Blade 1 X force, node 52, N
        155     1.56003295898E+003                                                     F               0         Blade 1 Y force, node 52, N
        156    -1.38646508789E+003                                                     F               0         Blade 1 Z force, node 52, N
        157     6.65889550781E+003                                                     F               0         Blade 1 X force, node 53, N
        158     1.52024877930E+003                                                     F               0         Blade 1 Y force, node 53, N