
Linearized model: Predictions were generated on 31-Jan-2024 at 12:35:17 using OpenFAST, compiled as a 64-bit application using single precision at commit v3.5.1
 linked with  NWTC Subroutine Library; ElastoDyn; InflowWind; AeroDyn; ServoDyn; HydroDyn; MAP++ (<1.20.10>, <Oct-20-2023>)

Description from the FAST input file: CCT-9 Campign 4 model. Input files to be run with OpenFAST 3.5.0. GitHub branch from Lu Wang (https://github.com/luwang00/openfast/tree/dev) compiled on March 7, 2023.

Simulation information:
   Simulation time:                   506.4250 s
   Rotor Speed:                         0.8936 rad/s
   Azimuth:                             0.2054 rad
   Wind Speed:                         10.0000 m/s
   Number of continuous states:        12
   Number of discrete states:           0
   Number of constraint states:         0
   Number of inputs:                 1890
   Number of outputs:                  19
   Jacobians included in this file?    No

Order of continuous states:
   Row/Column Operating Point                     Rotating Frame? Derivative Order Description
   ---------- ---------------                     --------------- ---------------- -----------
          1    8.166E+00                                 F               2         Platform horizontal surge translation DOF (internal DOF index = DOF_Sg), m
          2   -8.362E-02                                 F               2         Platform vertical heave translation DOF (internal DOF index = DOF_Hv), m
          3    7.103E-03                                 F               2         Platform yaw rotation DOF (internal DOF index = DOF_Y), rad
          4    3.852E-01                                 F               2         1st tower fore-aft bending mode DOF (internal DOF index = DOF_TFA1), m
          5    1.287E-03                                 F               2         2nd tower fore-aft bending mode DOF (internal DOF index = DOF_TFA2), m
          6    4.918E+00                                 F               2         Variable speed generator DOF (internal DOF index = DOF_GeAz), rad
          7   -2.402E-03                                 F               2         First time derivative of Platform horizontal surge translation DOF (internal DOF index = DOF_Sg), m/s
          8   -7.879E-03                                 F               2         First time derivative of Platform vertical heave translation DOF (internal DOF index = DOF_Hv), m/s
          9   -1.751E-06                                 F               2         First time derivative of Platform yaw rotation DOF (internal DOF index = DOF_Y), rad/s
         10    9.043E-04                                 F               2         First time derivative of 1st tower fore-aft bending mode DOF (internal DOF index = DOF_TFA1), m/s
         11   -9.959E-07                                 F               2         First time derivative of 2nd tower fore-aft bending mode DOF (internal DOF index = DOF_TFA2), m/s
         12    8.936E-01                                 F               2         First time derivative of Variable speed generator DOF (internal DOF index = DOF_GeAz), rad/s

Order of continuous state derivatives:
   Row/Column Operating Point                     Rotating Frame? Derivative Order Description
   ---------- ---------------                     --------------- ---------------- -----------
          1   -2.402E-03                                 F               2         First time derivative of Platform horizontal surge translation DOF (internal DOF index = DOF_Sg), m/s
          2   -7.879E-03                                 F               2         First time derivative of Platform vertical heave translation DOF (internal DOF index = DOF_Hv), m/s
          3   -1.751E-06                                 F               2         First time derivative of Platform yaw rotation DOF (internal DOF index = DOF_Y), rad/s
          4    9.043E-04                                 F               2         First time derivative of 1st tower fore-aft bending mode DOF (internal DOF index = DOF_TFA1), m/s
          5   -9.959E-07                                 F               2         First time derivative of 2nd tower fore-aft bending mode DOF (internal DOF index = DOF_TFA2), m/s
          6    8.936E-01                                 F               2         First time derivative of Variable speed generator DOF (internal DOF index = DOF_GeAz), rad/s
          7   -3.064E-04                                 F               2         First time derivative of First time derivative of Platform horizontal surge translation DOF (internal DOF index = DOF_Sg), m/s/s
          8    9.330E-04                                 F               2         First time derivative of First time derivative of Platform vertical heave translation DOF (internal DOF index = DOF_Hv), m/s/s
          9   -1.155E-06                                 F               2         First time derivative of First time derivative of Platform yaw rotation DOF (internal DOF index = DOF_Y), rad/s/s
         10   -4.800E-04                                 F               2         First time derivative of First time derivative of 1st tower fore-aft bending mode DOF (internal DOF index = DOF_TFA1), m/s/s
         11    1.674E-06                                 F               2         First time derivative of First time derivative of 2nd tower fore-aft bending mode DOF (internal DOF index = DOF_TFA2), m/s/s
         12   -1.149E-04                                 F               2         First time derivative of First time derivative of Variable speed generator DOF (internal DOF index = DOF_GeAz), rad/s/s

Order of inputs:
     Column   Operating Point                     Rotating Frame? Derivative Order Description
   ---------- ---------------                     --------------- ---------------- -----------
          1    7.670E+01                                 F               0         Blade 1 X force, node 1, N
          2    8.388E+01                                 F               0         Blade 1 Y force, node 1, N
          3    1.131E+01                                 F               0         Blade 1 Z force, node 1, N
          4    3.227E+02                                 F               0         Blade 1 X force, node 2, N
          5    1.598E+02                                 F               0         Blade 1 Y force, node 2, N
          6   -1.618E+00                                 F               0         Blade 1 Z force, node 2, N
          7    4.159E+02                                 F               0         Blade 1 X force, node 3, N
          8    1.019E+02                                 F               0         Blade 1 Y force, node 3, N
          9   -2.860E+01                                 F               0         Blade 1 Z force, node 3, N
         10    5.435E+02                                 F               0         Blade 1 X force, node 4, N
         11    6.363E+01                                 F               0         Blade 1 Y force, node 4, N
         12   -5.509E+01                                 F               0         Blade 1 Z force, node 4, N
         13    6.710E+02                                 F               0         Blade 1 X force, node 5, N
         14    2.532E+01                                 F               0         Blade 1 Y force, node 5, N
         15   -8.159E+01                                 F               0         Blade 1 Z force, node 5, N
         16    7.986E+02                                 F               0         Blade 1 X force, node 6, N
         17   -1.298E+01                                 F               0         Blade 1 Y force, node 6, N
         18   -1.081E+02                                 F               0         Blade 1 Z force, node 6, N
         19    9.261E+02                                 F               0         Blade 1 X force, node 7, N
         20   -5.129E+01                                 F               0         Blade 1 Y force, node 7, N
         21   -1.346E+02                                 F               0         Blade 1 Z force, node 7, N
         22    1.054E+03                                 F               0         Blade 1 X force, node 8, N
         23   -8.960E+01                                 F               0         Blade 1 Y force, node 8, N
         24   -1.611E+02                                 F               0         Blade 1 Z force, node 8, N
         25    1.181E+03                                 F               0         Blade 1 X force, node 9, N
         26   -1.279E+02                                 F               0         Blade 1 Y force, node 9, N
         27   -1.876E+02                                 F               0         Blade 1 Z force, node 9, N
         28    1.309E+03                                 F               0         Blade 1 X force, node 10, N
         29   -1.662E+02                                 F               0         Blade 1 Y force, node 10, N
         30   -2.141E+02                                 F               0         Blade 1 Z force, node 10, N
         31    1.436E+03                                 F               0         Blade 1 X force, node 11, N
         32   -2.045E+02                                 F               0         Blade 1 Y force, node 11, N
         33   -2.406E+02                                 F               0         Blade 1 Z force, node 11, N
         34    1.564E+03                                 F               0         Blade 1 X force, node 12, N
         35   -2.428E+02                                 F               0         Blade 1 Y force, node 12, N
         36   -2.671E+02                                 F               0         Blade 1 Z force, node 12, N
         37    1.691E+03                                 F               0         Blade 1 X force, node 13, N
         38   -2.811E+02                                 F               0         Blade 1 Y force, node 13, N
         39   -2.936E+02                                 F               0         Blade 1 Z force, node 13, N
         40    1.819E+03                                 F               0         Blade 1 X force, node 14, N
         41   -3.194E+02                                 F               0         Blade 1 Y force, node 14, N
         42   -3.201E+02                                 F               0         Blade 1 Z force, node 14, N
         43    1.947E+03                                 F               0         Blade 1 X force, node 15, N
         44   -3.578E+02                                 F               0         Blade 1 Y force, node 15, N
         45   -3.466E+02                                 F               0         Blade 1 Z force, node 15, N
         46    2.074E+03                                 F               0         Blade 1 X force, node 16, N
         47   -3.961E+02                                 F               0         Blade 1 Y force, node 16, N
         48   -3.731E+02                                 F               0         Blade 1 Z force, node 16, N
         49    2.555E+03                                 F               0         Blade 1 X force, node 17, N
         50   -5.015E+02                                 F               0         Blade 1 Y force, node 17, N
         51   -4.630E+02                                 F               0         Blade 1 Z force, node 17, N
         52    1.963E+03                                 F               0         Blade 1 X force, node 18, N
         53   -3.708E+02                                 F               0         Blade 1 Y force, node 18, N
         54   -3.521E+02                                 F               0         Blade 1 Z force, node 18, N
         55    2.427E+03                                 F               0         Blade 1 X force, node 19, N
         56   -4.325E+02                                 F               0         Blade 1 Y force, node 19, N
         57   -4.286E+02                                 F               0         Blade 1 Z force, node 19, N
         58    2.083E+03                                 F               0         Blade 1 X force, node 20, N
         59   -3.510E+02                                 F               0         Blade 1 Y force, node 20, N
         60   -3.628E+02                                 F               0         Blade 1 Z force, node 20, N
         61    3.100E+03                                 F               0         Blade 1 X force, node 21, N
         62   -4.888E+02                                 F               0         Blade 1 Y force, node 21, N
         63   -5.312E+02                                 F               0         Blade 1 Z force, node 21, N
         64    2.755E+03                                 F               0         Blade 1 X force, node 22, N
         65   -4.061E+02                                 F               0         Blade 1 Y force, node 22, N
         66   -4.650E+02                                 F               0         Blade 1 Z force, node 22, N
         67    2.847E+03                                 F               0         Blade 1 X force, node 23, N
         68   -3.944E+02                                 F               0         Blade 1 Y force, node 23, N
         69   -4.741E+02                                 F               0         Blade 1 Z force, node 23, N
         70    2.991E+03                                 F               0         Blade 1 X force, node 24, N
         71   -3.893E+02                                 F               0         Blade 1 Y force, node 24, N
         72   -4.916E+02                                 F               0         Blade 1 Z force, node 24, N
         73    3.082E+03                                 F               0         Blade 1 X force, node 25, N
         74   -3.768E+02                                 F               0         Blade 1 Y force, node 25, N
         75   -5.003E+02                                 F               0         Blade 1 Z force, node 25, N
         76    3.189E+03                                 F               0         Blade 1 X force, node 26, N
         77   -3.664E+02                                 F               0         Blade 1 Y force, node 26, N
         78   -5.118E+02                                 F               0         Blade 1 Z force, node 26, N
         79    3.841E+03                                 F               0         Blade 1 X force, node 27, N
         80   -4.131E+02                                 F               0         Blade 1 Y force, node 27, N
         81   -6.092E+02                                 F               0         Blade 1 Z force, node 27, N
         82    2.861E+03                                 F               0         Blade 1 X force, node 28, N
         83   -2.881E+02                                 F               0         Blade 1 Y force, node 28, N
         84   -4.488E+02                                 F               0         Blade 1 Z force, node 28, N
         85    3.512E+03                                 F               0         Blade 1 X force, node 29, N
         86   -3.344E+02                                 F               0         Blade 1 Y force, node 29, N
         87   -5.461E+02                                 F               0         Blade 1 Z force, node 29, N
         88    2.999E+03                                 F               0         Blade 1 X force, node 30, N
         89   -2.699E+02                                 F               0         Blade 1 Y force, node 30, N
         90   -4.622E+02                                 F               0         Blade 1 Z force, node 30, N
         91    4.349E+03                                 F               0         Blade 1 X force, node 31, N
         92   -3.662E+02                                 F               0         Blade 1 Y force, node 31, N
         93   -6.639E+02                                 F               0         Blade 1 Z force, node 31, N
         94    3.834E+03                                 F               0         Blade 1 X force, node 32, N
         95   -3.013E+02                                 F               0         Blade 1 Y force, node 32, N
         96   -5.799E+02                                 F               0         Blade 1 Z force, node 32, N
         97    3.941E+03                                 F               0         Blade 1 X force, node 33, N
         98   -2.900E+02                                 F               0         Blade 1 Y force, node 33, N
         99   -5.910E+02                                 F               0         Blade 1 Z force, node 33, N
        100    4.048E+03                                 F               0         Blade 1 X force, node 34, N
        101   -2.787E+02                                 F               0         Blade 1 Y force, node 34, N
        102   -6.022E+02                                 F               0         Blade 1 Z force, node 34, N
        103    4.156E+03                                 F               0         Blade 1 X force, node 35, N
        104   -2.673E+02                                 F               0         Blade 1 Y force, node 35, N
        105   -6.134E+02                                 F               0         Blade 1 Z force, node 35, N
        106    4.262E+03                                 F               0         Blade 1 X force, node 36, N
        107   -2.557E+02                                 F               0         Blade 1 Y force, node 36, N
        108   -6.244E+02                                 F               0         Blade 1 Z force, node 36, N
        109    5.112E+03                                 F               0         Blade 1 X force, node 37, N
        110   -2.845E+02                                 F               0         Blade 1 Y force, node 37, N
        111   -7.432E+02                                 F               0         Blade 1 Z force, node 37, N
        112    3.733E+03                                 F               0         Blade 1 X force, node 38, N
        113   -1.924E+02                                 F               0         Blade 1 Y force, node 38, N
        114   -5.388E+02                                 F               0         Blade 1 Z force, node 38, N
        115    4.584E+03                                 F               0         Blade 1 X force, node 39, N
        116   -2.211E+02                                 F               0         Blade 1 Y force, node 39, N
        117   -6.578E+02                                 F               0         Blade 1 Z force, node 39, N
        118    3.916E+03                                 F               0         Blade 1 X force, node 40, N
        119   -1.763E+02                                 F               0         Blade 1 Y force, node 40, N
        120   -5.588E+02                                 F               0         Blade 1 Z force, node 40, N
        121    5.574E+03                                 F               0         Blade 1 X force, node 41, N
        122   -2.309E+02                                 F               0         Blade 1 Y force, node 41, N
        123   -7.902E+02                                 F               0         Blade 1 Z force, node 41, N
        124    4.905E+03                                 F               0         Blade 1 X force, node 42, N
        125   -1.859E+02                                 F               0         Blade 1 Y force, node 42, N
        126   -6.909E+02                                 F               0         Blade 1 Z force, node 42, N
        127    5.010E+03                                 F               0         Blade 1 X force, node 43, N
        128   -1.740E+02                                 F               0         Blade 1 Y force, node 43, N
        129   -7.017E+02                                 F               0         Blade 1 Z force, node 43, N
        130    5.143E+03                                 F               0         Blade 1 X force, node 44, N
        131   -1.629E+02                                 F               0         Blade 1 Y force, node 44, N
        132   -7.164E+02                                 F               0         Blade 1 Z force, node 44, N
        133    5.195E+03                                 F               0         Blade 1 X force, node 45, N
        134   -1.492E+02                                 F               0         Blade 1 Y force, node 45, N
        135   -7.197E+02                                 F               0         Blade 1 Z force, node 45, N
        136    5.328E+03                                 F               0         Blade 1 X force, node 46, N
        137   -1.381E+02                                 F               0         Blade 1 Y force, node 46, N
        138   -7.343E+02                                 F               0         Blade 1 Z force, node 46, N
        139    6.388E+03                                 F               0         Blade 1 X force, node 47, N
        140   -1.471E+02                                 F               0         Blade 1 Y force, node 47, N
        141   -8.757E+02                                 F               0         Blade 1 Z force, node 47, N
        142    4.586E+03                                 F               0         Blade 1 X force, node 48, N
        143   -9.305E+01                                 F               0         Blade 1 Y force, node 48, N
        144   -6.254E+02                                 F               0         Blade 1 Z force, node 48, N
        145    5.645E+03                                 F               0         Blade 1 X force, node 49, N
        146   -1.019E+02                                 F               0         Blade 1 Y force, node 49, N
        147   -7.667E+02                                 F               0         Blade 1 Z force, node 49, N
        148    4.836E+03                                 F               0         Blade 1 X force, node 50, N
        149   -7.675E+01                                 F               0         Blade 1 Y force, node 50, N
        150   -6.540E+02                                 F               0         Blade 1 Z force, node 50, N
        151    6.772E+03                                 F               0         Blade 1 X force, node 51, N
        152   -9.082E+01                                 F               0         Blade 1 Y force, node 51, N
        153   -9.117E+02                                 F               0         Blade 1 Z force, node 51, N
        154    5.964E+03                                 F               0         Blade 1 X force, node 52, N
        155   -6.569E+01                                 F               0         Blade 1 Y force, node 52, N
        156   -7.992E+02                                 F               0         Blade 1 Z force, node 52, N
        157    6.070E+03                                 F               0         Blade 1 X force, node 53, N
        158   -5.364E+01                                 F               0         Blade 1 Y force, node 53, N
        159   -8.102E+02                                 F               0         Blade 1 Z force, node 53, N
        160    6.245E+03                                 F               0         Blade 1 X force, node 54, N
        161   -4.198E+01                                 F               0         Blade 1 Y force, node 54, N
        162   -8.302E+02                                 F               0         Blade 1 Z force, node 54, N
        163    6.216E+03                                 F               0         Blade 1 X force, node 55, N
        164   -2.902E+01                                 F               0         Blade 1 Y force, node 55, N
        165   -8.230E+02                                 F               0         Blade 1 Z force, node 55, N
        166    6.390E+03                                 F               0         Blade 1 X force, node 56, N
        167   -1.728E+01                                 F               0         Blade 1 Y force, node 56, N
        168   -8.428E+02                                 F               0         Blade 1 Z force, node 56, N
        169    7.672E+03                                 F               0         Blade 1 X force, node 57, N
        170   -5.043E+00                                 F               0         Blade 1 Y force, node 57, N
        171   -1.008E+03                                 F               0         Blade 1 Z force, node 57, N
        172    5.426E+03                                 F               0         Blade 1 X force, node 58, N
        173    7.007E+00                                 F               0         Blade 1 Y force, node 58, N
        174   -7.102E+02                                 F               0         Blade 1 Z force, node 58, N
        175    6.709E+03                                 F               0         Blade 1 X force, node 59, N
        176    1.930E+01                                 F               0         Blade 1 Y force, node 59, N
        177   -8.753E+02                                 F               0         Blade 1 Z force, node 59, N
        178    5.771E+03                                 F               0         Blade 1 X force, node 60, N
        179    2.568E+01                                 F               0         Blade 1 Y force, node 60, N
        180   -7.507E+02                                 F               0         Blade 1 Z force, node 60, N
        181    7.964E+03                                 F               0         Blade 1 X force, node 61, N
        182    4.961E+01                                 F               0         Blade 1 Y force, node 61, N
        183   -1.032E+03                                 F               0         Blade 1 Z force, node 61, N
        184    7.025E+03                                 F               0         Blade 1 X force, node 62, N
        185    5.613E+01                                 F               0         Blade 1 Y force, node 62, N
        186   -9.074E+02                                 F               0         Blade 1 Z force, node 62, N
        187    7.129E+03                                 F               0         Blade 1 X force, node 63, N
        188    6.849E+01                                 F               0         Blade 1 Y force, node 63, N
        189   -9.179E+02                                 F               0         Blade 1 Z force, node 63, N
        190    7.355E+03                                 F               0         Blade 1 X force, node 64, N
        191    8.225E+01                                 F               0         Blade 1 Y force, node 64, N
        192   -9.441E+02                                 F               0         Blade 1 Z force, node 64, N
        193    7.219E+03                                 F               0         Blade 1 X force, node 65, N
        194    9.168E+01                                 F               0         Blade 1 Y force, node 65, N
        195   -9.239E+02                                 F               0         Blade 1 Z force, node 65, N
        196    7.448E+03                                 F               0         Blade 1 X force, node 66, N
        197    1.053E+02                                 F               0         Blade 1 Y force, node 66, N
        198   -9.504E+02                                 F               0         Blade 1 Z force, node 66, N
        199    8.963E+03                                 F               0         Blade 1 X force, node 67, N
        200    1.404E+02                                 F               0         Blade 1 Y force, node 67, N
        201   -1.140E+03                                 F               0         Blade 1 Z force, node 67, N
        202    6.254E+03                                 F               0         Blade 1 X force, node 68, N
        203    1.071E+02                                 F               0         Blade 1 Y force, node 68, N
        204   -7.933E+02                                 F               0         Blade 1 Z force, node 68, N
        205    7.767E+03                                 F               0         Blade 1 X force, node 69, N
        206    1.423E+02                                 F               0         Blade 1 Y force, node 69, N
        207   -9.829E+02                                 F               0         Blade 1 Z force, node 69, N
        208    6.714E+03                                 F               0         Blade 1 X force, node 70, N
        209    1.311E+02                                 F               0         Blade 1 Y force, node 70, N
        210   -8.475E+02                                 F               0         Blade 1 Z force, node 70, N
        211    9.136E+03                                 F               0         Blade 1 X force, node 71, N
        212    1.909E+02                                 F               0         Blade 1 Y force, node 71, N
        213   -1.150E+03                                 F               0         Blade 1 Z force, node 71, N
        214    8.079E+03                                 F               0         Blade 1 X force, node 72, N
        215    1.799E+02                                 F               0         Blade 1 Y force, node 72, N
        216   -1.014E+03                                 F               0         Blade 1 Z force, node 72, N
        217    8.181E+03                                 F               0         Blade 1 X force, node 73, N