
Linearized model: Predictions were generated on 13-Feb-2024 at 11:29:37 using OpenFAST, compiled as a 64-bit application using single precision at commit v3.5.1
 linked with  NWTC Subroutine Library; ElastoDyn; InflowWind; AeroDyn; ServoDyn; HydroDyn; MAP++ (<1.20.10>, <Oct-20-2023>)

Description from the FAST input file: CCT-9 Campign 4 model. Input files to be run with OpenFAST 3.5.0. GitHub branch from Lu Wang (https://github.com/luwang00/openfast/tree/dev) compiled on March 7, 2023.

Simulation information:
   Simulation time:                  1211.2750 s
   Rotor Speed:                         0.7916 rad/s
   Azimuth:                             0.3563 rad
   Wind Speed:                         16.0000 m/s
   Number of continuous states:         0
   Number of discrete states:           0
   Number of constraint states:         0
   Number of inputs:                  303
   Number of outputs:                   1
   Jacobians included in this file?    No

Order of inputs:
     Column   Operating Point                                                   Rotating Frame? Derivative Order Description
   ---------- ---------------                                                   --------------- ---------------- -----------
          1    -1.08005075455E+001                                                     F               0         X-component position of node 1 (hub), m
          2     0.00000000000E+000                                                     F               0         Y-component position of node 1 (hub), m
          3     1.49740173340E+002                                                     F               0         Z-component position of node 1 (hub), m
          4     1.58233880997E+001                                                     F               0         X-component position of node 2 (blade 1, node 1), m
          5    -1.05322866440E+001                                                     F               0         Y-component position of node 2 (blade 1, node 1), m
          6     1.54641250610E+002                                                     F               0         Z-component position of node 2 (blade 1, node 1), m
          7     1.60917892456E+001                                                     F               0         X-component position of node 3 (blade 1, node 2), m
          8    -1.10607089996E+001                                                     F               0         Y-component position of node 3 (blade 1, node 2), m
          9     1.55837371826E+002                                                     F               0         Z-component position of node 3 (blade 1, node 2), m
         10     1.97415866852E+001                                                     F               0         X-component position of node 4 (blade 1, node 3), m
         11    -1.82463397980E+001                                                     F               0         Y-component position of node 4 (blade 1, node 3), m
         12     1.72102539062E+002                                                     F               0         Z-component position of node 4 (blade 1, node 3), m
         13     2.05191993713E+001                                                     F               0         X-component position of node 5 (blade 1, node 4), m
         14    -1.97772827148E+001                                                     F               0         Y-component position of node 5 (blade 1, node 4), m
         15     1.75567916870E+002                                                     F               0         Z-component position of node 5 (blade 1, node 4), m
         16     2.12969589233E+001                                                     F               0         X-component position of node 6 (blade 1, node 5), m
         17    -2.13085136414E+001                                                     F               0         Y-component position of node 6 (blade 1, node 5), m
         18     1.79033966064E+002                                                     F               0         Z-component position of node 6 (blade 1, node 5), m
         19     2.20745735168E+001                                                     F               0         X-component position of node 7 (blade 1, node 6), m
         20    -2.28394622803E+001                                                     F               0         Y-component position of node 7 (blade 1, node 6), m
         21     1.82499374390E+002                                                     F               0         Z-component position of node 7 (blade 1, node 6), m
         22     2.28521900177E+001                                                     F               0         X-component position of node 8 (blade 1, node 7), m
         23    -2.43704147339E+001                                                     F               0         Y-component position of node 8 (blade 1, node 7), m
         24     1.85964782715E+002                                                     F               0         Z-component position of node 8 (blade 1, node 7), m
         25     2.36299457550E+001                                                     F               0         X-component position of node 9 (blade 1, node 8), m
         26    -2.59016399384E+001                                                     F               0         Y-component position of node 9 (blade 1, node 8), m
         27     1.89430816650E+002                                                     F               0         Z-component position of node 9 (blade 1, node 8), m
         28     2.44075603485E+001                                                     F               0         X-component position of node 10 (blade 1, node 9), m
         29    -2.74325923920E+001                                                     F               0         Y-component position of node 10 (blade 1, node 9), m
         30     1.92896240234E+002                                                     F               0         Z-component position of node 10 (blade 1, node 9), m
         31     2.51851768494E+001                                                     F               0         X-component position of node 11 (blade 1, node 10), m
         32    -2.89635410309E+001                                                     F               0         Y-component position of node 11 (blade 1, node 10), m
         33     1.96361648560E+002                                                     F               0         Z-component position of node 11 (blade 1, node 10), m
         34     2.59627933502E+001                                                     F               0         X-component position of node 12 (blade 1, node 11), m
         35    -3.04944934845E+001                                                     F               0         Y-component position of node 12 (blade 1, node 11), m
         36     1.99827056885E+002                                                     F               0         Z-component position of node 12 (blade 1, node 11), m
         37     2.67405490875E+001                                                     F               0         X-component position of node 13 (blade 1, node 12), m
         38    -3.20257148743E+001                                                     F               0         Y-component position of node 13 (blade 1, node 12), m
         39     2.03293075562E+002                                                     F               0         Z-component position of node 13 (blade 1, node 12), m
         40     2.75181636810E+001                                                     F               0         X-component position of node 14 (blade 1, node 13), m
         41    -3.35566673279E+001                                                     F               0         Y-component position of node 14 (blade 1, node 13), m
         42     2.06758499146E+002                                                     F               0         Z-component position of node 14 (blade 1, node 13), m
         43     2.82957801819E+001                                                     F               0         X-component position of node 15 (blade 1, node 14), m
         44    -3.50876159668E+001                                                     F               0         Y-component position of node 15 (blade 1, node 14), m
         45     2.10223892212E+002                                                     F               0         Z-component position of node 15 (blade 1, node 14), m
         46     2.90735359192E+001                                                     F               0         X-component position of node 16 (blade 1, node 15), m
         47    -3.66188430786E+001                                                     F               0         Y-component position of node 16 (blade 1, node 15), m
         48     2.13689941406E+002                                                     F               0         Z-component position of node 16 (blade 1, node 15), m
         49     2.98511524200E+001                                                     F               0         X-component position of node 17 (blade 1, node 16), m
         50    -3.81497955322E+001                                                     F               0         Y-component position of node 17 (blade 1, node 16), m
         51     2.17155349731E+002                                                     F               0         Z-component position of node 17 (blade 1, node 16), m
         52     3.06287689209E+001                                                     F               0         X-component position of node 18 (blade 1, node 17), m
         53    -3.96807479858E+001                                                     F               0         Y-component position of node 18 (blade 1, node 17), m
         54     2.20620773315E+002                                                     F               0         Z-component position of node 18 (blade 1, node 17), m
         55     3.14063854218E+001                                                     F               0         X-component position of node 19 (blade 1, node 18), m
         56    -4.12116966248E+001                                                     F               0         Y-component position of node 19 (blade 1, node 18), m
         57     2.24086166382E+002                                                     F               0         Z-component position of node 19 (blade 1, node 18), m
         58     3.21841392517E+001                                                     F               0         X-component position of node 20 (blade 1, node 19), m
         59    -4.27429199219E+001                                                     F               0         Y-component position of node 20 (blade 1, node 19), m
         60     2.27552200317E+002                                                     F               0         Z-component position of node 20 (blade 1, node 19), m
         61     3.29617538452E+001                                                     F               0         X-component position of node 21 (blade 1, node 20), m
         62    -4.42738723755E+001                                                     F               0         Y-component position of node 21 (blade 1, node 20), m
         63     2.31017608643E+002                                                     F               0         Z-component position of node 21 (blade 1, node 20), m
         64     3.37393722534E+001                                                     F               0         X-component position of node 22 (blade 1, node 21), m
         65    -4.58048210144E+001                                                     F               0         Y-component position of node 22 (blade 1, node 21), m
         66     2.34483016968E+002                                                     F               0         Z-component position of node 22 (blade 1, node 21), m
         67     3.45171279907E+001                                                     F               0         X-component position of node 23 (blade 1, node 22), m
         68    -4.73360481262E+001                                                     F               0         Y-component position of node 23 (blade 1, node 22), m
         69     2.37949050903E+002                                                     F               0         Z-component position of node 23 (blade 1, node 22), m
         70     3.52947425842E+001                                                     F               0         X-component position of node 24 (blade 1, node 23), m
         71    -4.88670005798E+001                                                     F               0         Y-component position of node 24 (blade 1, node 23), m
         72     2.41414474487E+002                                                     F               0         Z-component position of node 24 (blade 1, node 23), m
         73     3.60723571777E+001                                                     F               0         X-component position of node 25 (blade 1, node 24), m
         74    -5.03979492188E+001                                                     F               0         Y-component position of node 25 (blade 1, node 24), m
         75     2.44879882812E+002                                                     F               0         Z-component position of node 25 (blade 1, node 24), m
         76     3.68499755859E+001                                                     F               0         X-component position of node 26 (blade 1, node 25), m
         77    -5.19288978577E+001                                                     F               0         Y-component position of node 26 (blade 1, node 25), m
         78     2.48345291138E+002                                                     F               0         Z-component position of node 26 (blade 1, node 25), m
         79     3.76277313232E+001                                                     F               0         X-component position of node 27 (blade 1, node 26), m
         80    -5.34601287842E+001                                                     F               0         Y-component position of node 27 (blade 1, node 26), m
         81     2.51811325073E+002                                                     F               0         Z-component position of node 27 (blade 1, node 26), m
         82     3.84053459167E+001                                                     F               0         X-component position of node 28 (blade 1, node 27), m
         83    -5.49910736084E+001                                                     F               0         Y-component position of node 28 (blade 1, node 27), m
         84     2.55276733398E+002                                                     F               0         Z-component position of node 28 (blade 1, node 27), m
         85     3.90645980835E+001                                                     F               0         X-component position of node 29 (blade 1, node 28), m
         86    -5.62889938354E+001                                                     F               0         Y-component position of node 29 (blade 1, node 28), m
         87     2.58214660645E+002                                                     F               0         Z-component position of node 29 (blade 1, node 28), m
         88     1.37813243866E+001                                                     F               0         X-component position of node 30 (blade 2, node 1), m
         89    -1.16484479904E+001                                                     F               0         Y-component position of node 30 (blade 2, node 1), m
         90     1.45332168579E+002                                                     F               0         Z-component position of node 30 (blade 2, node 1), m
         91     1.35576772690E+001                                                     F               0         X-component position of node 31 (blade 2, node 2), m
         92    -1.24458160400E+001                                                     F               0         Y-component position of node 31 (blade 2, node 2), m
         93     1.44285202026E+002                                                     F               0         Z-component position of node 31 (blade 2, node 2), m
         94     1.05164346695E+001                                                     F               0         X-component position of node 32 (blade 2, node 3), m
         95    -2.32886600494E+001                                                     F               0         Y-component position of node 32 (blade 2, node 3), m
         96     1.30048156738E+002                                                     F               0         Z-component position of node 32 (blade 2, node 3), m
         97     9.86847496033E+000                                                     F               0         X-component position of node 33 (blade 2, node 4), m
         98    -2.55988063812E+001                                                     F               0         Y-component position of node 33 (blade 2, node 4), m
         99     1.27014854431E+002                                                     F               0         Z-component position of node 33 (blade 2, node 4), m
        100     9.22040081024E+000                                                     F               0         X-component position of node 34 (blade 2, node 5), m
        101    -2.79093761444E+001                                                     F               0         Y-component position of node 34 (blade 2, node 5), m
        102     1.23981010437E+002                                                     F               0         Z-component position of node 34 (blade 2, node 5), m
        103     8.57244300842E+000                                                     F               0         X-component position of node 35 (blade 2, node 6), m
        104    -3.02195205688E+001                                                     F               0         Y-component position of node 35 (blade 2, node 6), m
        105     1.20947700500E+002                                                     F               0         Z-component position of node 35 (blade 2, node 6), m
        106     7.92448425293E+000                                                     F               0         X-component position of node 36 (blade 2, node 7), m
        107    -3.25296669006E+001                                                     F               0         Y-component position of node 36 (blade 2, node 7), m
        108     1.17914398193E+002                                                     F               0         Z-component position of node 36 (blade 2, node 7), m
        109     7.27641105652E+000                                                     F               0         X-component position of node 37 (blade 2, node 8), m
        110    -3.48402366638E+001                                                     F               0         Y-component position of node 37 (blade 2, node 8), m
        111     1.14880554199E+002                                                     F               0         Z-component position of node 37 (blade 2, node 8), m
        112     6.62845134735E+000                                                     F               0         X-component position of node 38 (blade 2, node 9), m
        113    -3.71503791809E+001                                                     F               0         Y-component position of node 38 (blade 2, node 9), m
        114     1.11847244263E+002                                                     F               0         Z-component position of node 38 (blade 2, node 9), m
        115     5.98049497604E+000                                                     F               0         X-component position of node 39 (blade 2, node 10), m
        116    -3.94605255127E+001                                                     F               0         Y-component position of node 39 (blade 2, node 10), m
        117     1.08813949585E+002                                                     F               0         Z-component position of node 39 (blade 2, node 10), m
        118     5.33253574371E+000                                                     F               0         X-component position of node 40 (blade 2, node 11), m
        119    -4.17706756592E+001                                                     F               0         Y-component position of node 40 (blade 2, node 11), m
        120     1.05780639648E+002                                                     F               0         Z-component position of node 40 (blade 2, node 11), m
        121     4.68446159363E+000                                                     F               0         X-component position of node 41 (blade 2, node 12), m
        122    -4.40812454224E+001                                                     F               0         Y-component position of node 41 (blade 2, node 12), m
        123     1.02746795654E+002                                                     F               0         Z-component position of node 41 (blade 2, node 12), m
        124     4.03650236130E+000                                                     F               0         X-component position of node 42 (blade 2, node 13), m
        125    -4.63913879395E+001                                                     F               0         Y-component position of node 42 (blade 2, node 13), m
        126     9.97134933472E+001                                                     F               0         Z-component position of node 42 (blade 2, node 13), m
        127     3.38854575157E+000                                                     F               0         X-component position of node 43 (blade 2, node 14), m
        128    -4.87015380859E+001                                                     F               0         Y-component position of node 43 (blade 2, node 14), m
        129     9.66801910400E+001                                                     F               0         Z-component position of node 43 (blade 2, node 14), m
        130     2.74046874046E+000                                                     F               0         X-component position of node 44 (blade 2, node 15), m
        131    -5.10121040344E+001                                                     F               0         Y-component position of node 44 (blade 2, node 15), m
        132     9.36463317871E+001                                                     F               0         Z-component position of node 44 (blade 2, node 15), m
        133     2.09250998497E+000                                                     F               0         X-component position of node 45 (blade 2, node 16), m
        134    -5.33222465515E+001                                                     F               0         Y-component position of node 45 (blade 2, node 16), m
        135     9.06130294800E+001                                                     F               0         Z-component position of node 45 (blade 2, node 16), m
        136     1.44455158710E+000                                                     F               0         X-component position of node 46 (blade 2, node 17), m
        137    -5.56323966980E+001                                                     F               0         Y-component position of node 46 (blade 2, node 17), m
        138     8.75797271729E+001                                                     F               0         Z-component position of node 46 (blade 2, node 17), m
        139     7.96593785286E-001                                                     F               0         X-component position of node 47 (blade 2, node 18), m
        140    -5.79425430298E+001                                                     F               0         Y-component position of node 47 (blade 2, node 18), m
        141     8.45464248657E+001                                                     F               0         Z-component position of node 47 (blade 2, node 18), m
        142     1.48520782590E-001                                                     F               0         X-component position of node 48 (blade 2, node 19), m
        143    -6.02531089783E+001                                                     F               0         Y-component position of node 48 (blade 2, node 19), m
        144     8.15125808716E+001                                                     F               0         Z-component position of node 48 (blade 2, node 19), m
        145    -4.99438703060E-001                                                     F               0         X-component position of node 49 (blade 2, node 20), m
        146    -6.25632591248E+001                                                     F               0         Y-component position of node 49 (blade 2, node 20), m
        147     7.84792709351E+001                                                     F               0         Z-component position of node 49 (blade 2, node 20), m
        148    -1.14739644527E+000                                                     F               0         X-component position of node 50 (blade 2, node 21), m
        149    -6.48734054565E+001                                                     F               0         Y-component position of node 50 (blade 2, node 21), m
        150     7.54459686279E+001                                                     F               0         Z-component position of node 50 (blade 2, node 21), m
        151    -1.79547250271E+000                                                     F               0         X-component position of node 51 (blade 2, node 22), m
        152    -6.71839752197E+001                                                     F               0         Y-component position of node 51 (blade 2, node 22), m
        153     7.24121170044E+001                                                     F               0         Z-component position of node 51 (blade 2, node 22), m
        154    -2.44343090057E+000                                                     F               0         X-component position of node 52 (blade 2, node 23), m
        155    -6.94941177368E+001                                                     F               0         Y-component position of node 52 (blade 2, node 23), m
        156     6.93788146973E+001                                                     F               0         Z-component position of node 52 (blade 2, node 23), m
        157    -3.09138941765E+000                                                     F               0         X-component position of node 53 (blade 2, node 24), m
        158    -7.18042678833E+001                                                     F               0         Y-component position of node 53 (blade 2, node 24), m
        159     6.63455123901E+001                                                     F               0         Z-component position of node 53 (blade 2, node 24), m
        160    -3.73934674263E+000                                                     F               0         X-component position of node 54 (blade 2, node 25), m
        161    -7.41144104004E+001                                                     F               0         Y-component position of node 54 (blade 2, node 25), m
        162     6.33122138977E+001                                                     F               0         Z-component position of node 54 (blade 2, node 25), m
        163    -4.38742589951E+000                                                     F               0         X-component position of node 55 (blade 2, node 26), m
        164    -7.64249801636E+001                                                     F               0         Y-component position of node 55 (blade 2, node 26), m
        165     6.02783508301E+001                                                     F               0         Z-component position of node 55 (blade 2, node 26), m
        166    -5.03538322449E+000                                                     F               0         X-component position of node 56 (blade 2, node 27), m
        167    -7.87351303101E+001                                                     F               0         Y-component position of node 56 (blade 2, node 27), m
        168     5.72450523376E+001                                                     F               0         Z-component position of node 56 (blade 2, node 27), m
        169    -5.58470916748E+000                                                     F               0         X-component position of node 57 (blade 2, node 28), m
        170    -8.06936340332E+001                                                     F               0         Y-component position of node 57 (blade 2, node 28), m
        171     5.46734733582E+001                                                     F               0         Z-component position of node 57 (blade 2, node 28), m
        172     1.45237646103E+001                                                     F               0         X-component position of node 58 (blade 3, node 1), m